Generated File for use with LIGGGHTS gran/bond hybrid

56 atoms
1 atom types
55 bonds
1 bond types

-2.000000000000000e-01 2.000000000000000e-01 xlo xhi
-2.000000000000000e-01 2.000000000000000e-01 ylo yhi
-2.000000000000000e-01 2.000000000000000e-01 zlo zhi

Masses

1 1.590431280879836e-06

Atoms

1 1 1.500000000000000e-03 0.000000000000000e+00 0.000000000000000e+00 3.000000000000000e-03 1.500000000000000e+02 1
2 1 4.500000000000001e-03 0.000000000000000e+00 0.000000000000000e+00 3.000000000000000e-03 1.500000000000000e+02 1
3 1 7.500000000000001e-03 0.000000000000000e+00 0.000000000000000e+00 3.000000000000000e-03 1.500000000000000e+02 1
4 1 1.050000000000000e-02 0.000000000000000e+00 0.000000000000000e+00 3.000000000000000e-03 1.500000000000000e+02 1
5 1 1.350000000000000e-02 0.000000000000000e+00 0.000000000000000e+00 3.000000000000000e-03 1.500000000000000e+02 1
6 1 1.650000000000000e-02 0.000000000000000e+00 0.000000000000000e+00 3.000000000000000e-03 1.500000000000000e+02 1
7 1 1.950000000000000e-02 0.000000000000000e+00 0.000000000000000e+00 3.000000000000000e-03 1.500000000000000e+02 1
8 1 2.250000000000000e-02 0.000000000000000e+00 0.000000000000000e+00 3.000000000000000e-03 1.500000000000000e+02 1
9 1 2.550000000000000e-02 0.000000000000000e+00 0.000000000000000e+00 3.000000000000000e-03 1.500000000000000e+02 1
10 1 2.850000000000000e-02 0.000000000000000e+00 0.000000000000000e+00 3.000000000000000e-03 1.500000000000000e+02 1
11 1 3.150000000000000e-02 0.000000000000000e+00 0.000000000000000e+00 3.000000000000000e-03 1.500000000000000e+02 1
12 1 3.450000000000000e-02 0.000000000000000e+00 0.000000000000000e+00 3.000000000000000e-03 1.500000000000000e+02 1
13 1 3.750000000000001e-02 0.000000000000000e+00 0.000000000000000e+00 3.000000000000000e-03 1.500000000000000e+02 1
14 1 4.050000000000001e-02 0.000000000000000e+00 0.000000000000000e+00 3.000000000000000e-03 1.500000000000000e+02 1
15 1 4.350000000000001e-02 0.000000000000000e+00 0.000000000000000e+00 3.000000000000000e-03 1.500000000000000e+02 1
16 1 4.650000000000001e-02 0.000000000000000e+00 0.000000000000000e+00 3.000000000000000e-03 1.500000000000000e+02 1
17 1 4.950000000000002e-02 0.000000000000000e+00 0.000000000000000e+00 3.000000000000000e-03 1.500000000000000e+02 1
18 1 5.250000000000002e-02 0.000000000000000e+00 0.000000000000000e+00 3.000000000000000e-03 1.500000000000000e+02 1
19 1 5.550000000000002e-02 0.000000000000000e+00 0.000000000000000e+00 3.000000000000000e-03 1.500000000000000e+02 1
20 1 5.850000000000002e-02 0.000000000000000e+00 0.000000000000000e+00 3.000000000000000e-03 1.500000000000000e+02 1
21 1 6.150000000000003e-02 0.000000000000000e+00 0.000000000000000e+00 3.000000000000000e-03 1.500000000000000e+02 1
22 1 6.450000000000003e-02 0.000000000000000e+00 0.000000000000000e+00 3.000000000000000e-03 1.500000000000000e+02 1
23 1 6.750000000000003e-02 0.000000000000000e+00 0.000000000000000e+00 3.000000000000000e-03 1.500000000000000e+02 1
24 1 7.050000000000003e-02 0.000000000000000e+00 0.000000000000000e+00 3.000000000000000e-03 1.500000000000000e+02 1
25 1 7.350000000000004e-02 0.000000000000000e+00 0.000000000000000e+00 3.000000000000000e-03 1.500000000000000e+02 1
26 1 7.650000000000004e-02 0.000000000000000e+00 0.000000000000000e+00 3.000000000000000e-03 1.500000000000000e+02 1
27 1 7.950000000000004e-02 0.000000000000000e+00 0.000000000000000e+00 3.000000000000000e-03 1.500000000000000e+02 1
28 1 8.250000000000005e-02 0.000000000000000e+00 0.000000000000000e+00 3.000000000000000e-03 1.500000000000000e+02 1
29 1 8.550000000000005e-02 0.000000000000000e+00 0.000000000000000e+00 3.000000000000000e-03 1.500000000000000e+02 1
30 1 8.850000000000005e-02 0.000000000000000e+00 0.000000000000000e+00 3.000000000000000e-03 1.500000000000000e+02 1
31 1 9.150000000000005e-02 0.000000000000000e+00 0.000000000000000e+00 3.000000000000000e-03 1.500000000000000e+02 1
32 1 9.450000000000006e-02 0.000000000000000e+00 0.000000000000000e+00 3.000000000000000e-03 1.500000000000000e+02 1
33 1 9.750000000000006e-02 0.000000000000000e+00 0.000000000000000e+00 3.000000000000000e-03 1.500000000000000e+02 1
34 1 1.005000000000001e-01 0.000000000000000e+00 0.000000000000000e+00 3.000000000000000e-03 1.500000000000000e+02 1
35 1 1.035000000000001e-01 0.000000000000000e+00 0.000000000000000e+00 3.000000000000000e-03 1.500000000000000e+02 1
36 1 1.065000000000001e-01 0.000000000000000e+00 0.000000000000000e+00 3.000000000000000e-03 1.500000000000000e+02 1
37 1 1.095000000000001e-01 0.000000000000000e+00 0.000000000000000e+00 3.000000000000000e-03 1.500000000000000e+02 1
38 1 1.125000000000001e-01 0.000000000000000e+00 0.000000000000000e+00 3.000000000000000e-03 1.500000000000000e+02 1
39 1 1.155000000000001e-01 0.000000000000000e+00 0.000000000000000e+00 3.000000000000000e-03 1.500000000000000e+02 1
40 1 1.185000000000001e-01 0.000000000000000e+00 0.000000000000000e+00 3.000000000000000e-03 1.500000000000000e+02 1
41 1 1.215000000000001e-01 0.000000000000000e+00 0.000000000000000e+00 3.000000000000000e-03 1.500000000000000e+02 1
42 1 1.245000000000001e-01 0.000000000000000e+00 0.000000000000000e+00 3.000000000000000e-03 1.500000000000000e+02 1
43 1 1.275000000000001e-01 0.000000000000000e+00 0.000000000000000e+00 3.000000000000000e-03 1.500000000000000e+02 1
44 1 1.305000000000001e-01 0.000000000000000e+00 0.000000000000000e+00 3.000000000000000e-03 1.500000000000000e+02 1
45 1 1.335000000000001e-01 0.000000000000000e+00 0.000000000000000e+00 3.000000000000000e-03 1.500000000000000e+02 1
46 1 1.365000000000001e-01 0.000000000000000e+00 0.000000000000000e+00 3.000000000000000e-03 1.500000000000000e+02 1
47 1 1.395000000000001e-01 0.000000000000000e+00 0.000000000000000e+00 3.000000000000000e-03 1.500000000000000e+02 1
48 1 1.425000000000001e-01 0.000000000000000e+00 0.000000000000000e+00 3.000000000000000e-03 1.500000000000000e+02 1
49 1 1.455000000000001e-01 0.000000000000000e+00 0.000000000000000e+00 3.000000000000000e-03 1.500000000000000e+02 1
50 1 1.485000000000001e-01 0.000000000000000e+00 0.000000000000000e+00 3.000000000000000e-03 1.500000000000000e+02 1
51 1 1.515000000000001e-01 0.000000000000000e+00 0.000000000000000e+00 3.000000000000000e-03 1.500000000000000e+02 1
52 1 1.545000000000001e-01 0.000000000000000e+00 0.000000000000000e+00 3.000000000000000e-03 1.500000000000000e+02 1
53 1 1.575000000000001e-01 0.000000000000000e+00 0.000000000000000e+00 3.000000000000000e-03 1.500000000000000e+02 1
54 1 1.605000000000001e-01 0.000000000000000e+00 0.000000000000000e+00 3.000000000000000e-03 1.500000000000000e+02 1
55 1 1.635000000000001e-01 0.000000000000000e+00 0.000000000000000e+00 3.000000000000000e-03 1.500000000000000e+02 1
56 1 1.665000000000001e-01 0.000000000000000e+00 0.000000000000000e+00 3.000000000000000e-03 1.500000000000000e+02 1

Bonds

1 1 1 2
2 1 2 3
3 1 3 4
4 1 4 5
5 1 5 6
6 1 6 7
7 1 7 8
8 1 8 9
9 1 9 10
10 1 10 11
11 1 11 12
12 1 12 13
13 1 13 14
14 1 14 15
15 1 15 16
16 1 16 17
17 1 17 18
18 1 18 19
19 1 19 20
20 1 20 21
21 1 21 22
22 1 22 23
23 1 23 24
24 1 24 25
25 1 25 26
26 1 26 27
27 1 27 28
28 1 28 29
29 1 29 30
30 1 30 31
31 1 31 32
32 1 32 33
33 1 33 34
34 1 34 35
35 1 35 36
36 1 36 37
37 1 37 38
38 1 38 39
39 1 39 40
40 1 40 41
41 1 41 42
42 1 42 43
43 1 43 44
44 1 44 45
45 1 45 46
46 1 46 47
47 1 47 48
48 1 48 49
49 1 49 50
50 1 50 51
51 1 51 52
52 1 52 53
53 1 53 54
54 1 54 55
55 1 55 56