ITEM: TIMESTEP
7000000
ITEM: NUMBER OF ATOMS
56
ITEM: BOX BOUNDS ff ff ff
-0.1 0.171215
-0.171215 0.171215
-0.171215 0.171215
ITEM: ATOMS id type x y z vx vy vz fx fy fz omegax omegay omegaz radius 
1 1 3.14437e-16 0 -6.86699e-09 4.49197e-15 0 -9.81e-08 0 0 0 0 0 0 0.001415 
2 1 0.00283 0 -3.94838e-08 1.04055e-07 0 0.00389077 -1.102e-08 0 2.07787e-08 0 -2.72737 0 0.001415 
3 1 0.00566 0 -1.52734e-07 6.22386e-07 0 0.0154027 -8.34706e-08 0 8.30923e-08 0 -5.38594 0 0.001415 
4 1 0.00849 0 -3.64819e-07 2.0977e-06 0 0.0343411 -2.74359e-07 0 1.86461e-07 0 -7.97574 0 0.001415 
5 1 0.01132 0 -6.93875e-07 5.19502e-06 0 0.0605114 -6.36156e-07 0 3.30426e-07 0 -10.4968 0 0.001415 
6 1 0.01415 0 -1.15795e-06 1.06932e-05 0 0.0937189 -1.21685e-06 0 5.14549e-07 0 -12.9491 0 0.001415 
7 1 0.01698 0 -1.77497e-06 1.94763e-05 0 0.133769 -2.06026e-06 0 7.38412e-07 0 -15.3327 0 0.001415 
8 1 0.01981 0 -2.5627e-06 3.25242e-05 0 0.180468 -3.20584e-06 0 1.00162e-06 0 -17.6478 0 0.001415 
9 1 0.02264 0 -3.5387e-06 5.09031e-05 0 0.233622 -4.68917e-06 0 1.30378e-06 0 -19.8943 0 0.001415 
10 1 0.02547 0 -4.72027e-06 7.57553e-05 0 0.293036 -6.54178e-06 0 1.64453e-06 0 -22.0725 0 0.001415 
11 1 0.0283 0 -6.12441e-06 0.000108289 0 0.358518 -8.79155e-06 0 2.02352e-06 0 -24.1823 0 0.001415 
12 1 0.03113 0 -7.76772e-06 0.000149765 0 0.429874 -1.14625e-05 0 2.4404e-06 0 -26.2241 0 0.001415 
13 1 0.03396 0 -9.66636e-06 0.00020149 0 0.506913 -1.45753e-05 0 2.89482e-06 0 -28.1979 0 0.001415 
14 1 0.03679 0 -1.1836e-05 0.0002648 0 0.589441 -1.81472e-05 0 3.38645e-06 0 -30.1041 0 0.001415 
15 1 0.03962 0 -1.42918e-05 0.000341048 0 0.677268 -2.2192e-05 0 3.91493e-06 0 -31.9428 0 0.001415 
16 1 0.04245 0 -1.70481e-05 0.000431598 0 0.770204 -2.67209e-05 0 4.47993e-06 0 -33.7145 0 0.001415 
17 1 0.04528 0 -2.01186e-05 0.000537803 0 0.868059 -3.17414e-05 0 5.08108e-06 0 -35.4194 0 0.001415 
18 1 0.04811 0 -2.35164e-05 0.000661 0 0.970645 -3.7259e-05 0 5.71799e-06 0 -37.0579 0 0.001415 
19 1 0.05094 0 -2.72535e-05 0.000802495 0 1.07777 -4.32756e-05 0 6.39027e-06 0 -38.6305 0 0.001415 
20 1 0.05377 0 -3.1341e-05 0.000963548 0 1.18926 -4.97916e-05 0 7.09749e-06 0 -40.1376 0 0.001415 
21 1 0.0566 0 -3.57892e-05 0.00114537 0 1.30492 -5.68041e-05 0 7.8392e-06 0 -41.5799 0 0.001415 
22 1 0.05943 0 -4.06072e-05 0.00134909 0 1.42457 -6.43087e-05 0 8.61491e-06 0 -42.9578 0 0.001415 
23 1 0.06226 0 -4.58029e-05 0.00157577 0 1.54803 -7.22985e-05 0 9.42408e-06 0 -44.2721 0 0.001415 
24 1 0.06509 0 -5.13834e-05 0.0018264 0 1.67512 -8.07647e-05 0 1.02662e-05 0 -45.5234 0 0.001415 
25 1 0.06792 0 -5.73541e-05 0.00210183 0 1.80566 -8.96972e-05 0 1.11405e-05 0 -46.7124 0 0.001415 
26 1 0.07075 0 -6.37195e-05 0.00240284 0 1.93948 -9.90833e-05 0 1.20465e-05 0 -47.8401 0 0.001415 
27 1 0.07358 0 -7.04826e-05 0.00273008 0 2.07641 -0.00010891 0 1.29834e-05 0 -48.9073 0 0.001415 
28 1 0.07641 0 -7.76453e-05 0.00308407 0 2.21627 -0.000119163 0 1.39505e-05 0 -49.9148 0 0.001415 
29 1 0.07924 0 -8.52079e-05 0.00346523 0 2.35889 -0.000129824 0 1.49469e-05 0 -50.8638 0 0.001415 
30 1 0.0820699 0 -9.31694e-05 0.00387381 0 2.50412 -0.000140879 0 1.59717e-05 0 -51.7553 0 0.001415 
31 1 0.0848999 0 -0.000101527 0.00430995 0 2.6518 -0.000152308 0 1.70241e-05 0 -52.5903 0 0.001415 
32 1 0.0877299 0 -0.000110278 0.00477365 0 2.80176 -0.000164094 0 1.81031e-05 0 -53.3702 0 0.001415 
33 1 0.0905599 0 -0.000119416 0.00526476 0 2.95385 -0.000176217 0 1.92076e-05 0 -54.0962 0 0.001415 
34 1 0.0933899 0 -0.000128935 0.00578299 0 3.10791 -0.000188657 0 2.03365e-05 0 -54.7695 0 0.001415 
35 1 0.0962199 0 -0.000138827 0.00632793 0 3.26381 -0.000201394 0 2.14887e-05 0 -55.3917 0 0.001415 
36 1 0.0990499 0 -0.000149083 0.00689901 0 3.4214 -0.000214409 0 2.26631e-05 0 -55.9642 0 0.001415 
37 1 0.10188 0 -0.000159691 0.00749555 0 3.58055 -0.000227681 0 2.38585e-05 0 -56.4885 0 0.001415 
38 1 0.10471 0 -0.00017064 0.00811674 0 3.7411 -0.00024119 0 2.50735e-05 0 -56.9663 0 0.001415 
39 1 0.10754 0 -0.000181916 0.00876163 0 3.90295 -0.000254917 0 2.63069e-05 0 -57.3992 0 0.001415 
40 1 0.11037 0 -0.000193506 0.00942918 0 4.06596 -0.000268842 0 2.75574e-05 0 -57.789 0 0.001415 
41 1 0.1132 0 -0.000205392 0.0101182 0 4.23001 -0.000282945 0 2.88237e-05 0 -58.1375 0 0.001415 
42 1 0.11603 0 -0.000217559 0.0108276 0 4.395 -0.000297209 0 3.01044e-05 0 -58.4468 0 0.001415 
43 1 0.11886 0 -0.000229989 0.0115558 0 4.5608 -0.000311614 0 3.13983e-05 0 -58.7186 0 0.001415 
44 1 0.12169 0 -0.000242663 0.0123015 0 4.72732 -0.000326145 0 3.27039e-05 0 -58.9552 0 0.001415 
45 1 0.12452 0 -0.00025556 0.0130633 0 4.89447 -0.000340784 0 3.402e-05 0 -59.1586 0 0.001415 
46 1 0.12735 0 -0.000268662 0.0138396 0 5.06214 -0.000355517 0 3.53453e-05 0 -59.3311 0 0.001415 
47 1 0.13018 0 -0.000281947 0.0146288 0 5.23026 -0.000370327 0 3.66785e-05 0 -59.4749 0 0.001415 
48 1 0.13301 0 -0.000295392 0.0154293 0 5.39875 -0.000385203 0 3.80185e-05 0 -59.5924 0 0.001415 
49 1 0.13584 0 -0.000308976 0.0162395 0 5.56754 -0.000400131 0 3.93641e-05 0 -59.6861 0 0.001415 
50 1 0.138669 0 -0.000322677 0.0170577 0 5.73656 -0.0004151 0 4.07141e-05 0 -59.7585 0 0.001415 
51 1 0.141499 0 -0.000336471 0.0178824 0 5.90576 -0.000430101 0 4.20677e-05 0 -59.8121 0 0.001415 
52 1 0.144329 0 -0.000350335 0.018712 0 6.07509 -0.000445124 0 4.34238e-05 0 -59.8497 0 0.001415 
53 1 0.147159 0 -0.000364246 0.0195447 0 6.2445 -0.000460163 0 4.47817e-05 0 -59.8739 0 0.001415 
54 1 0.149989 0 -0.000378181 0.0203792 0 6.41396 -0.00047521 0 4.61406e-05 0 -59.8877 0 0.001415 
55 1 0.152819 0 -0.000392119 0.021214 0 6.58345 -0.000490263 0 4.75001e-05 0 -59.8938 0 0.001415 
56 1 0.155649 0 -0.000406058 0.0220489 0 6.75296 -0.000505316 0 4.88598e-05 0 -59.8954 0 0.001415 
