ITEM: TIMESTEP
6800000
ITEM: NUMBER OF ATOMS
56
ITEM: BOX BOUNDS ff ff ff
-0.1 0.171215
-0.171215 0.171215
-0.171215 0.171215
ITEM: ATOMS id type x y z vx vy vz fx fy fz omegax omegay omegaz radius 
49 1 0.135574 0 -0.00778342 0.0335237 0 0.491469 0.000412612 0 0.00610148 0 -5.30446 0 0.001415 
50 1 0.138394 0 -0.008024 0.0348008 0 0.506436 0.000428272 0 0.00628642 0 -5.31116 0 0.001415 
51 1 0.141214 0 -0.00826491 0.036081 0 0.52142 0.000443971 0 0.00647155 0 -5.31613 0 0.001415 
52 1 0.144033 0 -0.00850607 0.0373635 0 0.536416 0.000459697 0 0.00665682 0 -5.31961 0 0.001415 
53 1 0.146853 0 -0.00874738 0.0386476 0 0.551419 0.000475442 0 0.00684218 0 -5.32186 0 0.001415 
54 1 0.149673 0 -0.00898879 0.0399325 0 0.566427 0.000491197 0 0.0070276 0 -5.32314 0 0.001415 
55 1 0.152492 0 -0.00923024 0.0412179 0 0.581438 0.000506958 0 0.00721305 0 -5.32371 0 0.001415 
56 1 0.155312 0 -0.0094717 0.0425034 0 0.596449 0.000522721 0 0.00739851 0 -5.32386 0 0.001415 
41 1 0.113014 0 -0.00588441 0.0235557 0 0.373061 0.000290315 0 0.00463771 0 -5.16204 0 0.001415 
42 1 0.115834 0 -0.00611805 0.0247652 0 0.387662 0.000305162 0 0.0048183 0 -5.19038 0 0.001415 
43 1 0.118655 0 -0.00635305 0.0259881 0 0.402336 0.00032017 0 0.00499978 0 -5.21534 0 0.001415 
44 1 0.121475 0 -0.00658926 0.0272227 0 0.417076 0.000335321 0 0.00518203 0 -5.23708 0 0.001415 
45 1 0.124295 0 -0.00682652 0.0284677 0 0.431873 0.000350595 0 0.00536495 0 -5.2558 0 0.001415 
46 1 0.127115 0 -0.0070647 0.0297216 0 0.446718 0.000365977 0 0.00554844 0 -5.27168 0 0.001415 
47 1 0.129935 0 -0.00730366 0.030983 0 0.461603 0.000381451 0 0.00573241 0 -5.28495 0 0.001415 
48 1 0.132754 0 -0.00754327 0.0322508 0 0.476523 0.000397 0 0.00591678 0 -5.2958 0 0.001415 
32 1 0.0876237 0 -0.00387196 0.0135381 0 0.246769 0.000167195 0 0.00307369 0 -4.72813 0 0.001415 
33 1 0.0904456 0 -0.00408527 0.014554 0 0.260206 0.000179696 0 0.00324031 0 -4.79391 0 0.001415 
34 1 0.0932674 0 -0.00430163 0.015598 0 0.273822 0.000192539 0 0.00340907 0 -4.855 0 0.001415 
35 1 0.0960889 0 -0.00452081 0.0166686 0 0.287602 0.000205704 0 0.00357983 0 -4.91153 0 0.001415 
36 1 0.0989102 0 -0.00474262 0.0177641 0 0.301535 0.000219171 0 0.00375241 0 -4.96361 0 0.001415 
37 1 0.101731 0 -0.00496687 0.0188827 0 0.315607 0.00023292 0 0.00392668 0 -5.01136 0 0.001415 
38 1 0.104552 0 -0.00519335 0.0200229 0 0.329807 0.000246929 0 0.00410248 0 -5.05494 0 0.001415 
39 1 0.107373 0 -0.00542189 0.0211829 0 0.344124 0.000261178 0 0.00427968 0 -5.09448 0 0.001415 
40 1 0.110194 0 -0.00565231 0.022361 0 0.358545 0.000275646 0 0.00445813 0 -5.13012 0 0.001415 
22 1 0.0593891 0 -0.00195329 0.00524536 0 0.125248 6.49566e-05 0 0.00156392 0 -3.79193 0 0.001415 
23 1 0.0622139 0 -0.00212425 0.00590396 0 0.136128 7.30919e-05 0 0.00169935 0 -3.9095 0 0.001415 
24 1 0.0650384 0 -0.00230047 0.00660304 0 0.147332 8.17234e-05 0 0.00183874 0 -4.02156 0 0.001415 
25 1 0.0678626 0 -0.00248171 0.00734185 0 0.158843 9.08422e-05 0 0.0019819 0 -4.12819 0 0.001415 
26 1 0.0706865 0 -0.00266774 0.00811954 0 0.170646 0.000100437 0 0.00212863 0 -4.22945 0 0.001415 
27 1 0.0735101 0 -0.00285834 0.00893509 0 0.182726 0.000110495 0 0.00227875 0 -4.32539 0 0.001415 
28 1 0.0763333 0 -0.00305328 0.00978738 0 0.195068 0.000121001 0 0.00243207 0 -4.41609 0 0.001415 
29 1 0.0791563 0 -0.00325233 0.0106752 0 0.207658 0.000131942 0 0.0025884 0 -4.50163 0 0.001415 
30 1 0.0819791 0 -0.00345527 0.0115972 0 0.220481 0.0001433 0 0.00274757 0 -4.58208 0 0.001415 
31 1 0.0848015 0 -0.00366188 0.012552 0 0.233522 0.000155057 0 0.00290939 0 -4.65755 0 0.001415 
1 1 3.05454e-16 0 -6.67079e-09 4.49197e-15 0 -9.81e-08 0 0 0 0 0 0 0.001415 
2 1 0.00282999 0 -5.26161e-06 8.84781e-07 0 0.000340582 1.09996e-08 0 4.27247e-06 0 -0.238757 0 0.001415 
3 1 0.00565995 0 -2.08269e-05 6.67385e-06 0 0.00134869 8.30495e-08 0 1.69148e-05 0 -0.471686 0 0.001415 
4 1 0.00848983 0 -4.64604e-05 2.19379e-05 0 0.00300767 2.72932e-07 0 3.77142e-05 0 -0.698781 0 0.001415 
5 1 0.0113196 0 -8.19199e-05 5.0904e-05 0 0.00530097 6.33224e-07 0 6.64575e-05 0 -0.920039 0 0.001415 
6 1 0.0141493 0 -0.000126963 9.74642e-05 0 0.00821197 1.21213e-06 0 0.000102931 0 -1.13546 0 0.001415 
7 1 0.0169787 0 -0.000181347 0.000165183 0 0.011724 2.05385e-06 0 0.000146922 0 -1.34503 0 0.001415 
8 1 0.019808 0 -0.00024483 0.000257308 0 0.0158206 3.19853e-06 0 0.000198215 0 -1.54876 0 0.001415 
9 1 0.0226371 0 -0.000317168 0.000376773 0 0.0204849 4.68244e-06 0 0.000256596 0 -1.74664 0 0.001415 
10 1 0.0254659 0 -0.00039812 0.000526216 0 0.0257003 6.53795e-06 0 0.000321852 0 -1.93868 0 0.001415 
11 1 0.0282945 0 -0.000487442 0.000707977 0 0.0314502 8.79399e-06 0 0.00039377 0 -2.12489 0 0.001415 
12 1 0.0311228 0 -0.000584892 0.000924115 0 0.037718 1.14757e-05 0 0.000472134 0 -2.30526 0 0.001415 
13 1 0.0339509 0 -0.000690227 0.00117642 0 0.044487 1.46048e-05 0 0.000556733 0 -2.47982 0 0.001415 
14 1 0.0367786 0 -0.000803206 0.0014664 0 0.0517407 1.81999e-05 0 0.000647354 0 -2.64857 0 0.001415 
15 1 0.0396061 0 -0.000923586 0.00179533 0 0.0594626 2.22762e-05 0 0.000743784 0 -2.81152 0 0.001415 
16 1 0.0424332 0 -0.00105113 0.00216422 0 0.0676361 2.68461e-05 0 0.000845815 0 -2.9687 0 0.001415 
17 1 0.04526 0 -0.00118559 0.00257385 0 0.0762448 3.19184e-05 0 0.000953234 0 -3.12012 0 0.001415 
18 1 0.0480865 0 -0.00132673 0.00302479 0 0.0852724 3.75001e-05 0 0.00106583 0 -3.26581 0 0.001415 
19 1 0.0509126 0 -0.0014743 0.00351738 0 0.0947027 4.35947e-05 0 0.00118341 0 -3.40581 0 0.001415 
20 1 0.0537384 0 -0.00162808 0.00405173 0 0.104519 5.02034e-05 0 0.00130575 0 -3.54013 0 0.001415 
21 1 0.0565639 0 -0.00178783 0.00462781 0 0.114707 5.73252e-05 0 0.00143266 0 -3.66883 0 0.001415 
