ITEM: TIMESTEP
11700000
ITEM: NUMBER OF ATOMS
56
ITEM: BOX BOUNDS ff ff ff
-0.1 0.171215
-0.171215 0.171215
-0.171215 0.171215
ITEM: ATOMS id type x y z vx vy vz fx fy fz omegax omegay omegaz radius 
1 1 5.2556e-16 0 -1.14777e-08 4.49197e-15 0 -9.81e-08 0 0 0 0 0 0 0.001415 
2 1 0.00283 0 6.7e-07 8.75146e-07 0 -0.00279673 -5.56991e-09 0 -4.00539e-07 0 1.96038 0 0.001415 
3 1 0.00566 0 2.67065e-06 6.91938e-06 0 -0.0110715 -4.21657e-08 0 -1.5857e-06 0 3.87147 0 0.001415 
4 1 0.00849 0 5.93698e-06 2.2819e-05 0 -0.0246848 -1.38494e-07 0 -3.53528e-06 0 5.73325 0 0.001415 
5 1 0.01132 0 1.04155e-05 5.27709e-05 0 -0.0434973 -3.21221e-07 0 -6.22915e-06 0 7.54575 0 0.001415 
6 1 0.01415 0 1.6053e-05 0.000100499 0 -0.0673694 -6.14481e-07 0 -9.64726e-06 0 9.309 0 0.001415 
7 1 0.01698 0 2.27961e-05 0.000169272 0 -0.0961617 -1.04054e-06 0 -1.37696e-05 0 11.023 0 0.001415 
8 1 0.01981 0 3.05919e-05 0.000261918 0 -0.129735 -1.61948e-06 0 -1.85761e-05 0 12.6878 0 0.001415 
9 1 0.02264 0 3.93877e-05 0.000380849 0 -0.16795 -2.36923e-06 0 -2.40471e-05 0 14.3035 0 0.001415 
10 1 0.0254699 0 4.91309e-05 0.00052807 0 -0.210668 -3.30594e-06 0 -3.01625e-05 0 15.8701 0 0.001415 
11 1 0.0282999 0 5.97694e-05 0.000705207 0 -0.25775 -4.44376e-06 0 -3.69025e-05 0 17.3878 0 0.001415 
12 1 0.0311299 0 7.12516e-05 0.000913521 0 -0.309058 -5.79511e-06 0 -4.42475e-05 0 18.8566 0 0.001415 
13 1 0.0339599 0 8.35264e-05 0.00115393 0 -0.364453 -7.37025e-06 0 -5.21777e-05 0 20.2766 0 0.001415 
14 1 0.0367898 0 9.65431e-05 0.00142702 0 -0.423799 -9.17845e-06 0 -6.06736e-05 0 21.6481 0 0.001415 
15 1 0.0396198 0 0.000110252 0.0017331 0 -0.486957 -1.12267e-05 0 -6.97155e-05 0 22.9713 0 0.001415 
16 1 0.0424498 0 0.000124604 0.00207217 0 -0.55379 -1.35206e-05 0 -7.92839e-05 0 24.2462 0 0.001415 
17 1 0.0452797 0 0.000139551 0.00244398 0 -0.624164 -1.60646e-05 0 -8.93596e-05 0 25.4732 0 0.001415 
18 1 0.0481097 0 0.000155046 0.00284805 0 -0.697943 -1.88609e-05 0 -9.99232e-05 0 26.6526 0 0.001415 
19 1 0.0509397 0 0.000171042 0.00328368 0 -0.774993 -2.19115e-05 0 -0.000110955 0 27.7846 0 0.001415 
20 1 0.0537696 0 0.000187495 0.00374996 0 -0.855179 -2.52162e-05 0 -0.000122437 0 28.8697 0 0.001415 
21 1 0.0565996 0 0.00020436 0.00424584 0 -0.938369 -2.8774e-05 0 -0.00013435 0 29.9081 0 0.001415 
22 1 0.0594295 0 0.000221595 0.0047701 0 -1.02443 -3.25825e-05 0 -0.000146675 0 30.9003 0 0.001415 
23 1 0.0622594 0 0.00023916 0.00532139 0 -1.11324 -3.66386e-05 0 -0.000159393 0 31.8468 0 0.001415 
24 1 0.0650894 0 0.000257013 0.00589824 0 -1.20466 -4.09379e-05 0 -0.000172487 0 32.748 0 0.001415 
25 1 0.0679193 0 0.000275118 0.00649912 0 -1.29857 -4.54755e-05 0 -0.000185937 0 33.6044 0 0.001415 
26 1 0.0707493 0 0.000293438 0.00712242 0 -1.39483 -5.02451e-05 0 -0.000199726 0 34.4168 0 0.001415 
27 1 0.0735792 0 0.000311939 0.00776646 0 -1.49334 -5.524e-05 0 -0.000213836 0 35.1856 0 0.001415 
28 1 0.0764092 0 0.000330586 0.00842957 0 -1.59396 -6.04532e-05 0 -0.000228249 0 35.9115 0 0.001415 
29 1 0.0792391 0 0.00034935 0.00911002 0 -1.69657 -6.58761e-05 0 -0.000242949 0 36.5954 0 0.001415 
30 1 0.082069 0 0.0003682 0.00980613 0 -1.80106 -7.15006e-05 0 -0.000257918 0 37.2378 0 0.001415 
31 1 0.084899 0 0.00038711 0.0105162 0 -1.90731 -7.73174e-05 0 -0.000273141 0 37.8396 0 0.001415 
32 1 0.0877289 0 0.000406055 0.0112386 0 -2.01521 -8.33175e-05 0 -0.000288599 0 38.4018 0 0.001415 
33 1 0.0905588 0 0.00042501 0.0119716 0 -2.12464 -8.94908e-05 0 -0.000304278 0 38.9251 0 0.001415 
34 1 0.0933888 0 0.000443956 0.0127139 0 -2.2355 -9.58275e-05 0 -0.000320162 0 39.4106 0 0.001415 
35 1 0.0962187 0 0.000462872 0.0134638 0 -2.34769 -0.000102318 0 -0.000336236 0 39.8592 0 0.001415 
36 1 0.0990487 0 0.000481741 0.01422 0 -2.46108 -0.000108951 0 -0.000352485 0 40.272 0 0.001415 
37 1 0.101879 0 0.000500549 0.0149811 0 -2.5756 -0.000115717 0 -0.000368895 0 40.6501 0 0.001415 
38 1 0.104709 0 0.000519283 0.0157461 0 -2.69114 -0.000122606 0 -0.000385451 0 40.9947 0 0.001415 
39 1 0.107538 0 0.000537932 0.0165136 0 -2.80761 -0.000129607 0 -0.000402141 0 41.3069 0 0.001415 
40 1 0.110368 0 0.000556486 0.0172828 0 -2.92492 -0.000136712 0 -0.000418951 0 41.5881 0 0.001415 
41 1 0.113198 0 0.000574941 0.0180528 0 -3.04298 -0.000143908 0 -0.000435869 0 41.8396 0 0.001415 
42 1 0.116028 0 0.00059329 0.0188227 0 -3.16171 -0.000151188 0 -0.000452884 0 42.0627 0 0.001415 
43 1 0.118858 0 0.000611532 0.0195919 0 -3.28104 -0.000158542 0 -0.000469984 0 42.2589 0 0.001415 
44 1 0.121688 0 0.000629666 0.0203599 0 -3.40088 -0.000165962 0 -0.000487159 0 42.4296 0 0.001415 
45 1 0.124518 0 0.000647694 0.0211263 0 -3.52117 -0.000173438 0 -0.000504398 0 42.5764 0 0.001415 
46 1 0.127348 0 0.000665618 0.0218906 0 -3.64185 -0.000180962 0 -0.000521691 0 42.7009 0 0.001415 
47 1 0.130178 0 0.000683445 0.0226529 0 -3.76284 -0.000188528 0 -0.000539031 0 42.8047 0 0.001415 
48 1 0.133008 0 0.00070118 0.0234129 0 -3.88411 -0.000196127 0 -0.00055641 0 42.8896 0 0.001415 
49 1 0.135838 0 0.000718833 0.0241707 0 -4.00559 -0.000203755 0 -0.000573819 0 42.9572 0 0.001415 
50 1 0.138668 0 0.000736415 0.0249265 0 -4.12723 -0.000211405 0 -0.000591252 0 43.0094 0 0.001415 
51 1 0.141498 0 0.000753937 0.0256805 0 -4.24901 -0.00021907 0 -0.000608704 0 43.0482 0 0.001415 
52 1 0.144328 0 0.000771413 0.0264331 0 -4.37087 -0.000226748 0 -0.000626169 0 43.0753 0 0.001415 
53 1 0.147158 0 0.000788858 0.0271847 0 -4.4928 -0.000234433 0 -0.000643643 0 43.0928 0 0.001415 
54 1 0.149988 0 0.00080629 0.027936 0 -4.61477 -0.000242124 0 -0.000661122 0 43.1027 0 0.001415 
55 1 0.152818 0 0.000823723 0.0286875 0 -4.73676 -0.000249817 0 -0.000678604 0 43.1072 0 0.001415 
56 1 0.155648 0 0.000841158 0.0294391 0 -4.85875 -0.000257511 0 -0.000696087 0 43.1083 0 0.001415 
