ITEM: TIMESTEP
10600000
ITEM: NUMBER OF ATOMS
56
ITEM: BOX BOUNDS ff ff ff
-0.1 0.171215
-0.171215 0.171215
-0.171215 0.171215
ITEM: ATOMS id type x y z vx vy vz fx fy fz omegax omegay omegaz radius 
1 1 4.76148e-16 0 -1.03986e-08 4.49197e-15 0 -9.81e-08 0 0 0 0 0 0 0.001415 
2 1 0.00283 0 3.98088e-06 -1.99801e-06 0 0.00102658 5.26166e-09 0 -3.10368e-06 0 -0.719813 0 0.001415 
3 1 0.00565997 0 1.57745e-05 -1.51926e-05 0 0.00406488 4.01073e-08 0 -1.22876e-05 0 -1.42166 0 0.001415 
4 1 0.00848991 0 3.51519e-05 -4.99386e-05 0 0.0090639 1.31833e-07 0 -2.73977e-05 0 -2.10554 0 0.001415 
5 1 0.0113198 0 6.18947e-05 -0.000115727 0 0.0159727 3.05442e-07 0 -4.82798e-05 0 -2.77144 0 0.001415 
6 1 0.0141496 0 9.57846e-05 -0.000221212 0 0.0247402 5.83774e-07 0 -7.47796e-05 0 -3.41936 0 0.001415 
7 1 0.0169793 0 0.000136603 -0.000374228 0 0.0353153 9.87425e-07 0 -0.000106743 0 -4.04929 0 0.001415 
8 1 0.0198089 0 0.000184133 -0.000581823 0 0.0476472 1.53498e-06 0 -0.000144015 0 -4.66126 0 0.001415 
9 1 0.0226384 0 0.000238156 -0.000850276 0 0.0616846 2.24278e-06 0 -0.000186442 0 -5.25526 0 0.001415 
10 1 0.0254677 0 0.000298455 -0.00118513 0 0.0773766 3.12557e-06 0 -0.00023387 0 -5.83131 0 0.001415 
11 1 0.0282969 0 0.000364814 -0.00159121 0 0.0946724 4.19573e-06 0 -0.000286145 0 -6.38945 0 0.001415 
12 1 0.031126 0 0.000437017 -0.00207266 0 0.113521 5.46433e-06 0 -0.000343113 0 -6.9297 0 0.001415 
13 1 0.033955 0 0.000514849 -0.00263295 0 0.133872 6.94032e-06 0 -0.000404621 0 -7.45211 0 0.001415 
14 1 0.0367837 0 0.000598097 -0.00327493 0 0.155674 8.63096e-06 0 -0.000470516 0 -7.95673 0 0.001415 
15 1 0.0396123 0 0.000686547 -0.00400086 0 0.178877 1.05423e-05 0 -0.000540646 0 -8.44362 0 0.001415 
16 1 0.0424408 0 0.00077999 -0.00481239 0 0.203431 1.26784e-05 0 -0.000614859 0 -8.91285 0 0.001415 
17 1 0.0452691 0 0.000878216 -0.00571066 0 0.229286 1.50422e-05 0 -0.000693004 0 -9.36451 0 0.001415 
18 1 0.0480972 0 0.000981017 -0.00669627 0 0.256392 1.76352e-05 0 -0.000774932 0 -9.79869 0 0.001415 
19 1 0.0509252 0 0.00108819 -0.00776935 0 0.284699 2.04576e-05 0 -0.000860492 0 -10.2155 0 0.001415 
20 1 0.053753 0 0.00119952 -0.00892957 0 0.314159 2.35082e-05 0 -0.000949536 0 -10.6151 0 0.001415 
21 1 0.0565807 0 0.00131483 -0.0101762 0 0.344723 2.67852e-05 0 -0.00104192 0 -10.9975 0 0.001415 
22 1 0.0594082 0 0.0014339 -0.011508 0 0.376343 3.02851e-05 0 -0.00113749 0 -11.363 0 0.001415 
23 1 0.0622355 0 0.00155654 -0.0129236 0 0.408971 3.40042e-05 0 -0.00123611 0 -11.7116 0 0.001415 
24 1 0.0650627 0 0.00168256 -0.0144211 0 0.442558 3.79373e-05 0 -0.00133764 0 -12.0437 0 0.001415 
25 1 0.0678897 0 0.00181178 -0.0159983 0 0.47706 4.20787e-05 0 -0.00144192 0 -12.3593 0 0.001415 
26 1 0.0707166 0 0.001944 -0.0176528 0 0.512429 4.64219e-05 0 -0.00154883 0 -12.6587 0 0.001415 
27 1 0.0735434 0 0.00207905 -0.019382 0 0.54862 5.09599e-05 0 -0.00165823 0 -12.942 0 0.001415 
28 1 0.0763701 0 0.00221674 -0.0211831 0 0.585588 5.5685e-05 0 -0.00176998 0 -13.2097 0 0.001415 
29 1 0.0791966 0 0.0023569 -0.0230529 0 0.623288 6.05891e-05 0 -0.00188394 0 -13.4618 0 0.001415 
30 1 0.082023 0 0.00249937 -0.0249882 0 0.661679 6.56636e-05 0 -0.00199998 0 -13.6987 0 0.001415 
31 1 0.0848493 0 0.00264398 -0.0269858 0 0.700715 7.08999e-05 0 -0.00211799 0 -13.9206 0 0.001415 
32 1 0.0876755 0 0.00279057 -0.0290421 0 0.740357 7.62893e-05 0 -0.00223782 0 -14.128 0 0.001415 
33 1 0.0905016 0 0.00293899 -0.0311538 0 0.780564 8.18213e-05 0 -0.00235936 0 -14.321 0 0.001415 
34 1 0.0933276 0 0.00308908 -0.0333172 0 0.821294 8.7488e-05 0 -0.00248249 0 -14.5001 0 0.001415 
35 1 0.0961536 0 0.0032407 -0.0355289 0 0.862511 9.32792e-05 0 -0.00260708 0 -14.6656 0 0.001415 
36 1 0.0989794 0 0.00339372 -0.0377851 0 0.904175 9.91858e-05 0 -0.00273303 0 -14.818 0 0.001415 
37 1 0.101805 0 0.00354799 -0.0400824 0 0.94625 0.000105198 0 -0.00286022 0 -14.9575 0 0.001415 
38 1 0.104631 0 0.0037034 -0.0424173 0 0.988701 0.000111308 0 -0.00298856 0 -15.0847 0 0.001415 
39 1 0.107457 0 0.00385982 -0.0447863 0 1.03149 0.000117505 0 -0.00311792 0 -15.2 0 0.001415 
40 1 0.110282 0 0.00401714 -0.0471861 0 1.0746 0.000123782 0 -0.00324822 0 -15.3038 0 0.001415 
41 1 0.113108 0 0.00417525 -0.0496136 0 1.11797 0.000130129 0 -0.00337935 0 -15.3967 0 0.001415 
42 1 0.115933 0 0.00433404 -0.0520654 0 1.1616 0.000136538 0 -0.00351123 0 -15.4791 0 0.001415 
43 1 0.118759 0 0.00449343 -0.0545387 0 1.20544 0.000143003 0 -0.00364377 0 -15.5516 0 0.001415 
44 1 0.121584 0 0.00465332 -0.0570307 0 1.24948 0.000149515 0 -0.00377689 0 -15.6146 0 0.001415 
45 1 0.12441 0 0.00481363 -0.0595386 0 1.29367 0.000156068 0 -0.00391051 0 -15.6689 0 0.001415 
46 1 0.127235 0 0.0049743 -0.0620601 0 1.33801 0.000162655 0 -0.00404456 0 -15.7149 0 0.001415 
47 1 0.130061 0 0.00513524 -0.0645927 0 1.38247 0.00016927 0 -0.00417896 0 -15.7532 0 0.001415 
48 1 0.132886 0 0.00529641 -0.0671344 0 1.42703 0.000175908 0 -0.00431366 0 -15.7846 0 0.001415 
49 1 0.135711 0 0.00545775 -0.0696834 0 1.47167 0.000182565 0 -0.0044486 0 -15.8096 0 0.001415 
50 1 0.138537 0 0.00561922 -0.0722379 0 1.51636 0.000189235 0 -0.00458373 0 -15.8289 0 0.001415 
51 1 0.141362 0 0.00578078 -0.0747966 0 1.56111 0.000195916 0 -0.004719 0 -15.8432 0 0.001415 
52 1 0.144188 0 0.00594241 -0.0773582 0 1.60589 0.000202603 0 -0.00485437 0 -15.8533 0 0.001415 
53 1 0.147013 0 0.00610407 -0.0799218 0 1.65069 0.000209296 0 -0.00498982 0 -15.8598 0 0.001415 
54 1 0.149838 0 0.00626577 -0.0824866 0 1.69551 0.000215992 0 -0.0051253 0 -15.8634 0 0.001415 
55 1 0.152664 0 0.00642749 -0.0850523 0 1.74033 0.00022269 0 -0.00526081 0 -15.8651 0 0.001415 
56 1 0.155489 0 0.00658922 -0.0876182 0 1.78515 0.000229389 0 -0.00539632 0 -15.8655 0 0.001415 
