ITEM: TIMESTEP
6500000
ITEM: NUMBER OF ATOMS
56
ITEM: BOX BOUNDS ff ff ff
-0.1 0.171215
-0.171215 0.171215
-0.171215 0.171215
ITEM: ATOMS id type x y z vx vy vz fx fy fz omegax omegay omegaz radius 
1 1 2.91978e-16 0 -6.37649e-09 4.49197e-15 0 -9.81e-08 0 0 0 0 0 0 0.001415 
2 1 0.00283 0 2.97548e-06 4.99192e-06 0 -0.00346689 -5.54828e-09 0 -2.23199e-06 0 2.43006 0 0.001415 
3 1 0.00565999 0 1.17826e-05 3.82084e-05 0 -0.013724 -4.17064e-08 0 -8.83353e-06 0 4.79886 0 0.001415 
4 1 0.00848995 0 2.62466e-05 0.000125705 0 -0.030598 -1.36971e-07 0 -1.96901e-05 0 7.1064 0 0.001415 
5 1 0.0113199 0 4.61991e-05 0.000291316 0 -0.0539152 -3.17724e-07 0 -3.46877e-05 0 9.35266 0 0.001415 
6 1 0.0141498 0 7.14721e-05 0.000556721 0 -0.0835021 -6.08126e-07 0 -5.37125e-05 0 11.5377 0 0.001415 
7 1 0.0169796 0 0.000101897 0.000941505 0 -0.119185 -1.03043e-06 0 -7.66512e-05 0 13.6615 0 0.001415 
8 1 0.0198094 0 0.000137308 0.00146323 0 -0.160791 -1.6047e-06 0 -0.000103391 0 15.7241 0 0.001415 
9 1 0.0226391 0 0.000177535 0.00213748 0 -0.208145 -2.34925e-06 0 -0.000133818 0 17.7256 0 0.001415 
10 1 0.0254687 0 0.000222413 0.00297798 0 -0.261076 -3.28035e-06 0 -0.000167822 0 19.6661 0 0.001415 
11 1 0.0282983 0 0.000271775 0.0039966 0 -0.31941 -4.41243e-06 0 -0.00020529 0 21.5456 0 0.001415 
12 1 0.0311278 0 0.000325455 0.00520348 0 -0.382974 -5.75818e-06 0 -0.00024611 0 23.3644 0 0.001415 
13 1 0.0339572 0 0.000383289 0.00660707 0 -0.451597 -7.32877e-06 0 -0.000290171 0 25.1226 0 0.001415 
14 1 0.0367865 0 0.000445113 0.00821422 0 -0.525106 -9.13304e-06 0 -0.000337362 0 26.8203 0 0.001415 
15 1 0.0396158 0 0.000510763 0.0100302 0 -0.603331 -1.11791e-05 0 -0.000387575 0 28.4579 0 0.001415 
16 1 0.0424449 0 0.000580079 0.012059 0 -0.686102 -1.34731e-05 0 -0.000440697 0 30.0355 0 0.001415 
17 1 0.045274 0 0.0006529 0.014303 0 -0.773249 -1.60195e-05 0 -0.000496622 0 31.5536 0 0.001415 
18 1 0.048103 0 0.000729067 0.0167634 0 -0.864604 -1.88215e-05 0 -0.00055524 0 33.0124 0 0.001415 
19 1 0.0509319 0 0.000808424 0.0194403 0 -0.96 -2.18815e-05 0 -0.000616444 0 34.4124 0 0.001415 
20 1 0.0537607 0 0.000890817 0.0223324 0 -1.05927 -2.51997e-05 0 -0.000680127 0 35.7539 0 0.001415 
21 1 0.0565894 0 0.000976091 0.0254375 0 -1.16225 -2.87756e-05 0 -0.000746183 0 37.0375 0 0.001415 
22 1 0.059418 0 0.0010641 0.0287525 0 -1.26878 -3.26076e-05 0 -0.000814507 0 38.2637 0 0.001415 
23 1 0.0622466 0 0.00115469 0.0322732 0 -1.37869 -3.6693e-05 0 -0.000884995 0 39.4331 0 0.001415 
24 1 0.065075 0 0.00124771 0.0359948 0 -1.49182 -4.10279e-05 0 -0.000957545 0 40.5463 0 0.001415 
25 1 0.0679034 0 0.00134304 0.0399117 0 -1.60802 -4.56076e-05 0 -0.00103206 0 41.604 0 0.001415 
26 1 0.0707317 0 0.00144051 0.0440175 0 -1.72714 -5.04263e-05 0 -0.00110842 0 42.6069 0 0.001415 
27 1 0.07356 0 0.00154001 0.0483053 0 -1.84901 -5.54785e-05 0 -0.00118656 0 43.5558 0 0.001415 
28 1 0.0763882 0 0.00164139 0.0527679 0 -1.97348 -6.0756e-05 0 -0.00126635 0 44.4516 0 0.001415 
29 1 0.0792163 0 0.00174452 0.0573974 0 -2.10041 -6.62517e-05 0 -0.00134771 0 45.2952 0 0.001415 
30 1 0.0820444 0 0.00184929 0.0621856 0 -2.22965 -7.19574e-05 0 -0.00143055 0 46.0875 0 0.001415 
31 1 0.0848724 0 0.00195556 0.0671242 0 -2.36106 -7.78637e-05 0 -0.00151477 0 46.8295 0 0.001415 
32 1 0.0877003 0 0.00206322 0.0722044 0 -2.49449 -8.39624e-05 0 -0.00160028 0 47.5224 0 0.001415 
33 1 0.0905282 0 0.00217215 0.0774175 0 -2.62982 -9.02429e-05 0 -0.00168699 0 48.1672 0 0.001415 
34 1 0.0933561 0 0.00228224 0.0827546 0 -2.76689 -9.66959e-05 0 -0.00177482 0 48.7652 0 0.001415 
35 1 0.0961839 0 0.00239339 0.0882068 0 -2.90559 -0.000103311 0 -0.00186369 0 49.3177 0 0.001415 
36 1 0.0990117 0 0.0025055 0.0937653 0 -3.04579 -0.000110078 0 -0.00195351 0 49.8259 0 0.001415 
37 1 0.101839 0 0.00261846 0.0994212 0 -3.18736 -0.000116987 0 -0.0020442 0 50.2913 0 0.001415 
38 1 0.104667 0 0.00273219 0.105166 0 -3.33019 -0.000124026 0 -0.0021357 0 50.7152 0 0.001415 
39 1 0.107495 0 0.00284659 0.110991 0 -3.47416 -0.000131187 0 -0.00222791 0 51.0993 0 0.001415 
40 1 0.110322 0 0.00296159 0.116889 0 -3.61916 -0.000138458 0 -0.00232079 0 51.4451 0 0.001415 
41 1 0.11315 0 0.00307712 0.12285 0 -3.76508 -0.00014583 0 -0.00241424 0 51.7542 0 0.001415 
42 1 0.115978 0 0.00319308 0.128869 0 -3.91182 -0.000153292 0 -0.00250823 0 52.0284 0 0.001415 
43 1 0.118805 0 0.00330943 0.134937 0 -4.0593 -0.000160835 0 -0.00260267 0 52.2694 0 0.001415 
44 1 0.121633 0 0.00342609 0.141048 0 -4.2074 -0.00016845 0 -0.00269751 0 52.479 0 0.001415 
45 1 0.124461 0 0.00354302 0.147196 0 -4.35606 -0.000176128 0 -0.00279271 0 52.6593 0 0.001415 
46 1 0.127288 0 0.00366016 0.153374 0 -4.50519 -0.000183859 0 -0.0028882 0 52.8121 0 0.001415 
47 1 0.130116 0 0.00377746 0.159578 0 -4.65471 -0.000191637 0 -0.00298394 0 52.9395 0 0.001415 
48 1 0.132943 0 0.0038949 0.165801 0 -4.80455 -0.000199452 0 -0.00307988 0 53.0435 0 0.001415 
49 1 0.135771 0 0.00401242 0.172041 0 -4.95466 -0.0002073 0 -0.003176 0 53.1265 0 0.001415 
50 1 0.138598 0 0.00413002 0.178292 0 -5.10498 -0.000215172 0 -0.00327224 0 53.1905 0 0.001415 
51 1 0.141426 0 0.00424766 0.184553 0 -5.25545 -0.000223063 0 -0.00336858 0 53.238 0 0.001415 
52 1 0.144253 0 0.00436533 0.19082 0 -5.40604 -0.000230969 0 -0.003465 0 53.2712 0 0.001415 
53 1 0.147081 0 0.00448302 0.197091 0 -5.5567 -0.000238883 0 -0.00356146 0 53.2927 0 0.001415 
54 1 0.149909 0 0.00460073 0.203365 0 -5.70741 -0.000246803 0 -0.00365795 0 53.3048 0 0.001415 
55 1 0.152736 0 0.00471846 0.209641 0 -5.85814 -0.000254726 0 -0.00375445 0 53.3103 0 0.001415 
56 1 0.155564 0 0.00483619 0.215917 0 -6.00888 -0.000262649 0 -0.00385097 0 53.3117 0 0.001415 
