ITEM: TIMESTEP
5600000
ITEM: NUMBER OF ATOMS
56
ITEM: BOX BOUNDS ff ff ff
-0.1 0.171215
-0.171215 0.171215
-0.171215 0.171215
ITEM: ATOMS id type x y z vx vy vz fx fy fz omegax omegay omegaz radius 
1 1 2.5155e-16 0 -5.49359e-09 4.49197e-15 0 -9.81e-08 0 0 0 0 0 0 0.001415 
2 1 0.00283 0 4.55849e-06 6.29585e-06 0 -0.00283006 1.71433e-09 0 -3.37209e-06 0 1.98398 0 0.001415 
3 1 0.00565996 0 1.80474e-05 4.78937e-05 0 -0.0112053 1.30303e-08 0 -1.33617e-05 0 3.91897 0 0.001415 
4 1 0.00848988 0 4.02147e-05 0.000157472 0 -0.0249868 4.27963e-08 0 -2.98155e-05 0 5.80494 0 0.001415 
5 1 0.0113197 0 7.08137e-05 0.00036502 0 -0.0440356 9.91446e-08 0 -5.25804e-05 0 7.64187 0 0.001415 
6 1 0.0141494 0 0.000109598 0.000697909 0 -0.0682123 1.89528e-07 0 -8.15032e-05 0 9.42976 0 0.001415 
7 1 0.0169791 0 0.000156321 0.00118097 0 -0.0973777 3.20649e-07 0 -0.000116431 0 11.1686 0 0.001415 
8 1 0.0198085 0 0.000210737 0.00183656 0 -0.131392 4.9848e-07 0 -0.000157212 0 12.8584 0 0.001415 
9 1 0.0226379 0 0.0002726 0.00268464 0 -0.170116 7.28567e-07 0 -0.000203692 0 14.4991 0 0.001415 
10 1 0.025467 0 0.000341665 0.00374288 0 -0.213411 1.01564e-06 0 -0.000255719 0 16.0909 0 0.001415 
11 1 0.028296 0 0.000417687 0.00502669 0 -0.261137 1.3638e-06 0 -0.000313141 0 17.6338 0 0.001415 
12 1 0.0311248 0 0.000500424 0.00654936 0 -0.313154 1.77686e-06 0 -0.000375805 0 19.1278 0 0.001415 
13 1 0.0339534 0 0.000589631 0.00832208 0 -0.369326 2.25761e-06 0 -0.000443559 0 20.573 0 0.001415 
14 1 0.0367818 0 0.000685067 0.0103541 0 -0.429512 2.80871e-06 0 -0.00051625 0 21.9696 0 0.001415 
15 1 0.03961 0 0.000786493 0.0126527 0 -0.493574 3.43211e-06 0 -0.000593726 0 23.3178 0 0.001415 
16 1 0.0424379 0 0.00089367 0.0152234 0 -0.561377 4.12939e-06 0 -0.000675834 0 24.6176 0 0.001415 
17 1 0.0452657 0 0.00100636 0.01807 0 -0.632781 4.90135e-06 0 -0.000762422 0 25.8694 0 0.001415 
18 1 0.0480932 0 0.00112433 0.0211948 0 -0.707652 5.74885e-06 0 -0.000853338 0 27.0732 0 0.001415 
19 1 0.0509205 0 0.00124735 0.0245983 0 -0.785853 6.67178e-06 0 -0.00094843 0 28.2295 0 0.001415 
20 1 0.0537477 0 0.00137518 0.0282798 0 -0.86725 7.6702e-06 0 -0.00104755 0 29.3385 0 0.001415 
21 1 0.0565746 0 0.0015076 0.032237 0 -0.95171 8.74308e-06 0 -0.00115053 0 30.4005 0 0.001415 
22 1 0.0594013 0 0.00164438 0.0364667 0 -1.0391 9.88971e-06 0 -0.00125724 0 31.4159 0 0.001415 
23 1 0.0622277 0 0.00178531 0.0409643 0 -1.12929 1.11091e-05 0 -0.00136752 0 32.3852 0 0.001415 
24 1 0.065054 0 0.00193016 0.045724 0 -1.22214 1.23986e-05 0 -0.00148122 0 33.3087 0 0.001415 
25 1 0.0678801 0 0.00207871 0.0507395 0 -1.31754 1.37575e-05 0 -0.00159818 0 34.187 0 0.001415 
26 1 0.070706 0 0.00223077 0.0560031 0 -1.41535 1.5183e-05 0 -0.00171826 0 35.0206 0 0.001415 
27 1 0.0735318 0 0.00238612 0.0615066 0 -1.51544 1.66725e-05 0 -0.00184132 0 35.8101 0 0.001415 
28 1 0.0763573 0 0.00254455 0.0672412 0 -1.6177 1.82241e-05 0 -0.0019672 0 36.5561 0 0.001415 
29 1 0.0791827 0 0.00270588 0.0731972 0 -1.722 1.98348e-05 0 -0.00209575 0 37.2592 0 0.001415 
30 1 0.082008 0 0.0028699 0.0793646 0 -1.82822 2.1501e-05 0 -0.00222684 0 37.9203 0 0.001415 
31 1 0.0848331 0 0.00303643 0.0857329 0 -1.93624 2.32209e-05 0 -0.00236031 0 38.5401 0 0.001415 
32 1 0.087658 0 0.00320529 0.0922913 0 -2.04595 2.499e-05 0 -0.00249603 0 39.1194 0 0.001415 
33 1 0.0904829 0 0.0033763 0.0990288 0 -2.15724 2.68064e-05 0 -0.00263386 0 39.659 0 0.001415 
34 1 0.0933076 0 0.00354928 0.105934 0 -2.26999 2.86658e-05 0 -0.00277365 0 40.16 0 0.001415 
35 1 0.0961322 0 0.00372407 0.112996 0 -2.38409 3.05654e-05 0 -0.00291527 0 40.6233 0 0.001415 
36 1 0.0989567 0 0.00390051 0.120203 0 -2.49945 3.2502e-05 0 -0.00305859 0 41.0498 0 0.001415 
37 1 0.101781 0 0.00407845 0.127543 0 -2.61596 3.4472e-05 0 -0.00320347 0 41.4409 0 0.001415 
38 1 0.104605 0 0.00425773 0.135007 0 -2.73352 3.64724e-05 0 -0.0033498 0 41.7974 0 0.001415 
39 1 0.10743 0 0.00443823 0.142582 0 -2.85204 3.84999e-05 0 -0.00349743 0 42.1208 0 0.001415 
40 1 0.110254 0 0.0046198 0.150257 0 -2.97142 4.05519e-05 0 -0.00364627 0 42.4122 0 0.001415 
41 1 0.113078 0 0.00480232 0.158024 0 -3.09158 4.26249e-05 0 -0.00379617 0 42.6729 0 0.001415 
42 1 0.115902 0 0.00498567 0.16587 0 -3.21243 4.47162e-05 0 -0.00394705 0 42.9044 0 0.001415 
43 1 0.118726 0 0.00516974 0.173788 0 -3.33389 4.68236e-05 0 -0.00409877 0 43.1081 0 0.001415 
44 1 0.12155 0 0.00535443 0.181767 0 -3.45589 4.89438e-05 0 -0.00425126 0 43.2854 0 0.001415 
45 1 0.124374 0 0.00553963 0.189799 0 -3.57835 5.10757e-05 0 -0.00440439 0 43.4381 0 0.001415 
46 1 0.127198 0 0.00572527 0.197875 0 -3.70121 5.32153e-05 0 -0.00455809 0 43.5676 0 0.001415 
47 1 0.130022 0 0.00591126 0.205989 0 -3.8244 5.5363e-05 0 -0.00471226 0 43.6756 0 0.001415 
48 1 0.132846 0 0.00609752 0.214134 0 -3.94787 5.75156e-05 0 -0.00486682 0 43.764 0 0.001415 
49 1 0.135669 0 0.00628401 0.222302 0 -4.07156 5.96716e-05 0 -0.00502171 0 43.8345 0 0.001415 
50 1 0.138493 0 0.00647066 0.23049 0 -4.19543 6.18311e-05 0 -0.00517684 0 43.8889 0 0.001415 
51 1 0.141317 0 0.00665743 0.238691 0 -4.31942 6.39924e-05 0 -0.00533217 0 43.9293 0 0.001415 
52 1 0.144141 0 0.00684428 0.246903 0 -4.44352 6.61541e-05 0 -0.00548764 0 43.9577 0 0.001415 
53 1 0.146965 0 0.00703119 0.255121 0 -4.56768 6.83175e-05 0 -0.0056432 0 43.9759 0 0.001415 
54 1 0.149788 0 0.00721813 0.263343 0 -4.69187 7.04814e-05 0 -0.00579882 0 43.9863 0 0.001415 
55 1 0.152612 0 0.00740511 0.271568 0 -4.81609 7.26456e-05 0 -0.00595447 0 43.991 0 0.001415 
56 1 0.155436 0 0.0075921 0.279794 0 -4.94032 7.48109e-05 0 -0.00611013 0 43.9922 0 0.001415 
