ITEM: TIMESTEP
10700000
ITEM: NUMBER OF ATOMS
56
ITEM: BOX BOUNDS ff ff ff
-0.1 0.171215
-0.171215 0.171215
-0.171215 0.171215
ITEM: ATOMS id type x y z vx vy vz fx fy fz omegax omegay omegaz radius 
1 1 4.8064e-16 0 -1.04967e-08 4.49197e-15 0 -9.81e-08 0 0 0 0 0 0 0.001415 
2 1 0.00283 0 3.92169e-06 2.17127e-06 0 -0.00113627 4.8419e-09 0 -3.02746e-06 0 0.7964 0 0.001415 
3 1 0.00565997 0 1.55407e-05 1.65474e-05 0 -0.00449806 3.69743e-08 0 -1.19855e-05 0 1.57289 0 0.001415 
4 1 0.00848991 0 3.46309e-05 5.44136e-05 0 -0.010029 1.21577e-07 0 -2.67232e-05 0 2.32946 0 0.001415 
5 1 0.0113198 0 6.0977e-05 0.000126113 0 -0.0176727 2.81768e-07 0 -4.70895e-05 0 3.0661 0 0.001415 
6 1 0.0141496 0 9.43634e-05 0.000241073 0 -0.0273725 5.38485e-07 0 -7.29334e-05 0 3.78281 0 0.001415 
7 1 0.0169793 0 0.000134575 0.00040783 0 -0.0390719 9.10772e-07 0 -0.000104104 0 4.4796 0 0.001415 
8 1 0.0198089 0 0.000181397 0.000634058 0 -0.0527143 1.41566e-06 0 -0.000140449 0 5.15646 0 0.001415 
9 1 0.0226384 0 0.000234614 0.000926597 0 -0.0682432 2.06836e-06 0 -0.000181819 0 5.81342 0 0.001415 
10 1 0.0254678 0 0.000294013 0.00129148 0 -0.0856021 2.8821e-06 0 -0.000228063 0 6.4505 0 0.001415 
11 1 0.028297 0 0.000359379 0.00173395 0 -0.104734 3.86857e-06 0 -0.000279029 0 7.06772 0 0.001415 
12 1 0.0311261 0 0.000430501 0.00225852 0 -0.125584 5.03769e-06 0 -0.000334568 0 7.66512 0 0.001415 
13 1 0.0339551 0 0.000507166 0.00286897 0 -0.148095 6.39757e-06 0 -0.00039453 0 8.24275 0 0.001415 
14 1 0.0367839 0 0.000589163 0.00356839 0 -0.17221 7.95518e-06 0 -0.000458764 0 8.80068 0 0.001415 
15 1 0.0396126 0 0.000676283 0.00435922 0 -0.197875 9.71575e-06 0 -0.000527123 0 9.33895 0 0.001415 
16 1 0.0424411 0 0.000768318 0.00524327 0 -0.225033 1.16829e-05 0 -0.000599457 0 9.85767 0 0.001415 
17 1 0.0452694 0 0.000865062 0.00622175 0 -0.253628 1.38594e-05 0 -0.000675619 0 10.3569 0 0.001415 
18 1 0.0480976 0 0.000966309 0.00729533 0 -0.283607 1.62467e-05 0 -0.000755462 0 10.8368 0 0.001415 
19 1 0.0509256 0 0.00107186 0.00846412 0 -0.314915 1.88442e-05 0 -0.000838841 0 11.2975 0 0.001415 
20 1 0.0537535 0 0.00118151 0.00972775 0 -0.347496 2.16519e-05 0 -0.000925609 0 11.739 0 0.001415 
21 1 0.0565812 0 0.00129506 0.0110854 0 -0.381296 2.46668e-05 0 -0.00101562 0 12.1616 0 0.001415 
22 1 0.0594088 0 0.00141232 0.0125358 0 -0.416264 2.78866e-05 0 -0.00110874 0 12.5654 0 0.001415 
23 1 0.0622362 0 0.00153309 0.0140773 0 -0.452345 3.13073e-05 0 -0.00120482 0 12.9506 0 0.001415 
24 1 0.0650635 0 0.00165719 0.0157079 0 -0.489487 3.49238e-05 0 -0.00130373 0 13.3174 0 0.001415 
25 1 0.0678906 0 0.00178443 0.0174252 0 -0.527638 3.87314e-05 0 -0.00140532 0 13.666 0 0.001415 
26 1 0.0707176 0 0.00191463 0.0192266 0 -0.566747 4.27238e-05 0 -0.00150946 0 13.9966 0 0.001415 
27 1 0.0735445 0 0.0020476 0.0211093 0 -0.606764 4.68943e-05 0 -0.00161601 0 14.3095 0 0.001415 
28 1 0.0763713 0 0.00218318 0.02307 0 -0.64764 5.12362e-05 0 -0.00172485 0 14.605 0 0.001415 
29 1 0.0791979 0 0.00232118 0.0251054 0 -0.689324 5.57413e-05 0 -0.00183584 0 14.8834 0 0.001415 
30 1 0.0820244 0 0.00246146 0.0272121 0 -0.731769 6.04027e-05 0 -0.00194885 0 15.1449 0 0.001415 
31 1 0.0848508 0 0.00260383 0.0293864 0 -0.774929 6.52114e-05 0 -0.00206376 0 15.3898 0 0.001415 
32 1 0.0876772 0 0.00274816 0.0316247 0 -0.818756 7.01596e-05 0 -0.00218045 0 15.6187 0 0.001415 
33 1 0.0905034 0 0.00289427 0.0339229 0 -0.863206 7.52386e-05 0 -0.00229879 0 15.8317 0 0.001415 
34 1 0.0933295 0 0.00304203 0.0362774 0 -0.908235 8.04395e-05 0 -0.00241867 0 16.0293 0 0.001415 
35 1 0.0961556 0 0.0031913 0.0386842 0 -0.9538 8.57543e-05 0 -0.00253997 0 16.2119 0 0.001415 
36 1 0.0989816 0 0.00334193 0.0411395 0 -0.999858 9.11739e-05 0 -0.00266259 0 16.3799 0 0.001415 
37 1 0.101807 0 0.0034938 0.0436393 0 -1.04637 9.669e-05 0 -0.00278642 0 16.5338 0 0.001415 
38 1 0.104633 0 0.00364678 0.0461799 0 -1.0933 0.000102294 0 -0.00291134 0 16.674 0 0.001415 
39 1 0.107459 0 0.00380076 0.0487576 0 -1.1406 0.000107978 0 -0.00303727 0 16.8011 0 0.001415 
40 1 0.110285 0 0.00395561 0.0513687 0 -1.18824 0.000113734 0 -0.0031641 0 16.9155 0 0.001415 
41 1 0.113111 0 0.00411124 0.0540096 0 -1.23619 0.000119553 0 -0.00329174 0 17.0179 0 0.001415 
42 1 0.115936 0 0.00426754 0.0566771 0 -1.28441 0.000125429 0 -0.0034201 0 17.1087 0 0.001415 
43 1 0.118762 0 0.00442442 0.0593678 0 -1.33287 0.000131355 0 -0.0035491 0 17.1885 0 0.001415 
44 1 0.121588 0 0.0045818 0.0620787 0 -1.38154 0.000137324 0 -0.00367866 0 17.258 0 0.001415 
45 1 0.124413 0 0.00473959 0.0648069 0 -1.4304 0.000143329 0 -0.00380871 0 17.3177 0 0.001415 
46 1 0.127239 0 0.00489772 0.0675497 0 -1.47941 0.000149366 0 -0.00393916 0 17.3683 0 0.001415 
47 1 0.130064 0 0.00505612 0.0703046 0 -1.52854 0.000155427 0 -0.00406997 0 17.4106 0 0.001415 
48 1 0.13289 0 0.00521475 0.0730694 0 -1.57779 0.00016151 0 -0.00420105 0 17.4451 0 0.001415 
49 1 0.135715 0 0.00537354 0.0758419 0 -1.62712 0.000167607 0 -0.00433237 0 17.4726 0 0.001415 
50 1 0.138541 0 0.00553246 0.0786205 0 -1.67653 0.000173719 0 -0.00446388 0 17.4939 0 0.001415 
51 1 0.141366 0 0.00569146 0.0814036 0 -1.72598 0.000179838 0 -0.00459552 0 17.5096 0 0.001415 
52 1 0.144192 0 0.00585053 0.0841898 0 -1.77547 0.000185965 0 -0.00472726 0 17.5206 0 0.001415 
53 1 0.147018 0 0.00600963 0.0869782 0 -1.82499 0.000192096 0 -0.00485906 0 17.5278 0 0.001415 
54 1 0.149843 0 0.00616877 0.0897679 0 -1.87452 0.000198229 0 -0.00499091 0 17.5318 0 0.001415 
55 1 0.152669 0 0.00632793 0.0925585 0 -1.92406 0.000204365 0 -0.00512278 0 17.5336 0 0.001415 
56 1 0.155494 0 0.0064871 0.0953494 0 -1.9736 0.000210501 0 -0.00525465 0 17.5341 0 0.001415 
