ITEM: TIMESTEP
13400000
ITEM: NUMBER OF ATOMS
56
ITEM: BOX BOUNDS ff ff ff
-0.1 0.171215
-0.171215 0.171215
-0.171215 0.171215
ITEM: ATOMS id type x y z vx vy vz fx fy fz omegax omegay omegaz radius 
1 1 6.01923e-16 0 -1.31454e-08 4.49197e-15 0 -9.81e-08 0 0 0 0 0 0 0.001415 
2 1 0.00283 0 9.86281e-07 1.15367e-06 0 -0.00245595 -4.08555e-09 0 -6.61911e-07 0 1.7215 0 0.001415 
3 1 0.00566 0 3.92765e-06 8.98271e-06 0 -0.00972242 -3.08586e-08 0 -2.62045e-06 0 3.39973 0 0.001415 
4 1 0.00849 0 8.74158e-06 2.95851e-05 0 -0.021677 -1.01365e-07 0 -5.84246e-06 0 5.03469 0 0.001415 
5 1 0.01132 0 1.53588e-05 6.84714e-05 0 -0.0381973 -2.35057e-07 0 -1.02949e-05 0 6.62639 0 0.001415 
6 1 0.01415 0 2.371e-05 0.000130584 0 -0.0591609 -4.49783e-07 0 -1.59446e-05 0 8.17484 0 0.001415 
7 1 0.01698 0 3.37263e-05 0.000220314 0 -0.0844453 -7.61789e-07 0 -2.27588e-05 0 9.68008 0 0.001415 
8 1 0.0198099 0 4.53386e-05 0.000341526 0 -0.113928 -1.18575e-06 0 -3.07046e-05 0 11.1421 0 0.001415 
9 1 0.0226399 0 5.84785e-05 0.000497571 0 -0.147488 -1.7351e-06 0 -3.97491e-05 0 12.561 0 0.001415 
10 1 0.0254699 0 7.30777e-05 0.000691313 0 -0.185002 -2.42151e-06 0 -4.98596e-05 0 13.9369 0 0.001415 
11 1 0.0282998 0 8.90682e-05 0.000925148 0 -0.226348 -3.25561e-06 0 -6.10034e-05 0 15.2697 0 0.001415 
12 1 0.0311298 0 0.000106383 0.00120103 0 -0.271406 -4.24625e-06 0 -7.3148e-05 0 16.5597 0 0.001415 
13 1 0.0339597 0 0.000124954 0.00152047 0 -0.320053 -5.40177e-06 0 -8.62609e-05 0 17.8068 0 0.001415 
14 1 0.0367896 0 0.000144717 0.0018846 0 -0.372169 -6.72811e-06 0 -0.00010031 0 19.0113 0 0.001415 
15 1 0.0396196 0 0.000165605 0.00229417 0 -0.427633 -8.23127e-06 0 -0.000115262 0 20.1734 0 0.001415 
16 1 0.0424495 0 0.000187553 0.00274957 0 -0.486326 -9.91515e-06 0 -0.000131086 0 21.2931 0 0.001415 
17 1 0.0452794 0 0.000210499 0.00325085 0 -0.548128 -1.17829e-05 0 -0.000147749 0 22.3708 0 0.001415 
18 1 0.0481093 0 0.000234379 0.00379776 0 -0.612919 -1.38371e-05 0 -0.00016522 0 23.4066 0 0.001415 
19 1 0.0509392 0 0.000259133 0.00438979 0 -0.680583 -1.60782e-05 0 -0.000183467 0 24.4008 0 0.001415 
20 1 0.0537691 0 0.000284699 0.00502613 0 -0.751002 -1.85069e-05 0 -0.000202459 0 25.3538 0 0.001415 
21 1 0.0565989 0 0.000311019 0.00570577 0 -0.824059 -2.11224e-05 0 -0.000222164 0 26.2658 0 0.001415 
22 1 0.0594288 0 0.000338036 0.00642748 0 -0.89964 -2.39232e-05 0 -0.000242551 0 27.1372 0 0.001415 
23 1 0.0622587 0 0.000365693 0.00718983 0 -0.977629 -2.69068e-05 0 -0.00026359 0 27.9685 0 0.001415 
24 1 0.0650885 0 0.000393936 0.00799125 0 -1.05791 -3.00703e-05 0 -0.00028525 0 28.76 0 0.001415 
25 1 0.0679184 0 0.000422713 0.00883001 0 -1.14038 -3.34102e-05 0 -0.000307502 0 29.5122 0 0.001415 
26 1 0.0707482 0 0.000451973 0.00970429 0 -1.22493 -3.69221e-05 0 -0.000330315 0 30.2257 0 0.001415 
27 1 0.0735781 0 0.000481667 0.0106122 0 -1.31143 -4.06008e-05 0 -0.00035366 0 30.9009 0 0.001415 
28 1 0.0764079 0 0.000511749 0.0115516 0 -1.3998 -4.44415e-05 0 -0.000377508 0 31.5385 0 0.001415 
29 1 0.0792378 0 0.000542173 0.0125206 0 -1.48991 -4.84379e-05 0 -0.000401831 0 32.1391 0 0.001415 
30 1 0.0820676 0 0.000572897 0.013517 0 -1.58167 -5.25842e-05 0 -0.000426601 0 32.7034 0 0.001415 
31 1 0.0848974 0 0.00060388 0.0145387 0 -1.67498 -5.68735e-05 0 -0.00045179 0 33.232 0 0.001415 
32 1 0.0877273 0 0.000635084 0.0155837 0 -1.76974 -6.1299e-05 0 -0.000477371 0 33.7257 0 0.001415 
33 1 0.0905571 0 0.000666474 0.0166498 0 -1.86584 -6.5854e-05 0 -0.000503319 0 34.1853 0 0.001415 
34 1 0.0933869 0 0.000698015 0.017735 0 -1.9632 -7.05305e-05 0 -0.000529606 0 34.6117 0 0.001415 
35 1 0.0962167 0 0.000729677 0.0188374 0 -2.06172 -7.53219e-05 0 -0.000556208 0 35.0057 0 0.001415 
36 1 0.0990466 0 0.000761431 0.019955 0 -2.1613 -8.022e-05 0 -0.000583101 0 35.3683 0 0.001415 
37 1 0.101876 0 0.000793249 0.0210859 0 -2.26187 -8.52176e-05 0 -0.000610261 0 35.7004 0 0.001415 
38 1 0.104706 0 0.00082511 0.0222284 0 -2.36334 -9.03072e-05 0 -0.000637665 0 36.003 0 0.001415 
39 1 0.107536 0 0.000856991 0.0233808 0 -2.46562 -9.54814e-05 0 -0.00066529 0 36.2773 0 0.001415 
40 1 0.110366 0 0.000888873 0.0245415 0 -2.56864 -0.000100732 0 -0.000693116 0 36.5242 0 0.001415 
41 1 0.113196 0 0.00092074 0.0257092 0 -2.67233 -0.000106053 0 -0.000721121 0 36.7451 0 0.001415 
42 1 0.116025 0 0.000952578 0.0268824 0 -2.7766 -0.000111437 0 -0.000749287 0 36.941 0 0.001415 
43 1 0.118855 0 0.000984375 0.02806 0 -2.88139 -0.000116876 0 -0.000777594 0 37.1133 0 0.001415 
44 1 0.121685 0 0.00101612 0.0292408 0 -2.98663 -0.000122365 0 -0.000806025 0 37.2633 0 0.001415 
45 1 0.124515 0 0.00104782 0.030424 0 -3.09227 -0.000127896 0 -0.000834563 0 37.3922 0 0.001415 
46 1 0.127345 0 0.00107945 0.0316087 0 -3.19825 -0.000133465 0 -0.000863193 0 37.5015 0 0.001415 
47 1 0.130175 0 0.00111102 0.0327943 0 -3.30451 -0.000139064 0 -0.000891899 0 37.5927 0 0.001415 
48 1 0.133004 0 0.00114253 0.0339802 0 -3.411 -0.00014469 0 -0.00092067 0 37.6672 0 0.001415 
49 1 0.135834 0 0.00117398 0.035166 0 -3.51768 -0.000150337 0 -0.000949491 0 37.7266 0 0.001415 
50 1 0.138664 0 0.00120538 0.0363514 0 -3.62452 -0.000156 0 -0.000978353 0 37.7725 0 0.001415 
51 1 0.141494 0 0.00123674 0.0375364 0 -3.73146 -0.000161676 0 -0.00100725 0 37.8065 0 0.001415 
52 1 0.144324 0 0.00126806 0.0387209 0 -3.83848 -0.000167361 0 -0.00103616 0 37.8303 0 0.001415 
53 1 0.147154 0 0.00129936 0.0399052 0 -3.94556 -0.000173053 0 -0.00106509 0 37.8457 0 0.001415 
54 1 0.149983 0 0.00133064 0.0410894 0 -4.05267 -0.000178748 0 -0.00109403 0 37.8544 0 0.001415 
55 1 0.152813 0 0.00136193 0.042274 0 -4.1598 -0.000184445 0 -0.00112297 0 37.8583 0 0.001415 
56 1 0.155643 0 0.00139323 0.0434587 0 -4.26694 -0.000190142 0 -0.00115192 0 37.8593 0 0.001415 
