ITEM: TIMESTEP
600000
ITEM: NUMBER OF ATOMS
56
ITEM: BOX BOUNDS ff ff ff
-0.1 0.171215
-0.171215 0.171215
-0.171215 0.171215
ITEM: ATOMS id type x y z vx vy vz fx fy fz omegax omegay omegaz radius 
52 1 0.144256 0 -0.00418416 -0.0309038 0 -0.958022 -7.85117e-06 0 -0.000164124 0 7.12306 0 0.001415 
53 1 0.147083 0 -0.00431231 -0.031816 0 -0.978145 -4.41954e-06 0 -8.37361e-05 0 7.11478 0 0.001415 
54 1 0.14991 0 -0.00444057 -0.0327283 0 -0.998252 -9.41006e-07 0 -2.38097e-06 0 7.11189 0 0.001415 
55 1 0.152737 0 -0.00456884 -0.0336405 0 -1.01836 2.54378e-06 0 7.91176e-05 0 7.11177 0 0.001415 
56 1 0.155565 0 -0.00469711 -0.0345527 0 -1.03846 6.03037e-06 0 0.000160645 0 7.11173 0 0.001415 
35 1 0.0961905 0 -0.00212138 -0.0155933 0 -0.600773 -3.00346e-05 0 -0.000749326 0 7.88409 0 0.001415 
36 1 0.0990183 0 -0.00223218 -0.0164637 0 -0.622988 -3.1065e-05 0 -0.000768989 0 7.82656 0 0.001415 
37 1 0.101846 0 -0.00234478 -0.0173416 0 -0.645037 -3.18519e-05 0 -0.000782324 0 7.76728 0 0.001415 
38 1 0.104674 0 -0.00245907 -0.0182259 0 -0.666916 -3.23701e-05 0 -0.000788912 0 7.70715 0 0.001415 
39 1 0.107501 0 -0.00257497 -0.0191156 0 -0.688624 -3.25982e-05 0 -0.00078842 0 7.647 0 0.001415 
40 1 0.110329 0 -0.00269239 -0.02001 0 -0.710162 -3.25178e-05 0 -0.000780607 0 7.58759 0 0.001415 
41 1 0.113156 0 -0.00281122 -0.0209082 0 -0.731533 -3.21162e-05 0 -0.000765331 0 7.52962 0 0.001415 
42 1 0.115984 0 -0.00293139 -0.0218095 0 -0.752742 -3.13844e-05 0 -0.000742547 0 7.47371 0 0.001415 
43 1 0.118811 0 -0.00305278 -0.0227134 0 -0.773797 -3.032e-05 0 -0.000712319 0 7.42041 0 0.001415 
44 1 0.121639 0 -0.0031753 -0.0236194 0 -0.794704 -2.89242e-05 0 -0.000674809 0 7.37024 0 0.001415 
45 1 0.124466 0 -0.00329885 -0.0245271 0 -0.815474 -2.72056e-05 0 -0.000630286 0 7.32362 0 0.001415 
46 1 0.127293 0 -0.00342334 -0.0254361 0 -0.836117 -2.51761e-05 0 -0.000579115 0 7.28095 0 0.001415 
47 1 0.13012 0 -0.00354866 -0.026346 0 -0.856645 -2.28555e-05 0 -0.000521759 0 7.24255 0 0.001415 
48 1 0.132948 0 -0.00367471 -0.0272568 0 -0.877071 -2.02663e-05 0 -0.000458767 0 7.2087 0 0.001415 
49 1 0.135775 0 -0.00380139 -0.028168 0 -0.897407 -1.74372e-05 0 -0.000390773 0 7.17966 0 0.001415 
50 1 0.138602 0 -0.0039286 -0.0290797 0 -0.917668 -1.44e-05 0 -0.000318481 0 7.15561 0 0.001415 
51 1 0.141429 0 -0.00405622 -0.0299916 0 -0.937868 -1.11917e-05 0 -0.000242658 0 7.1367 0 0.001415 
1 1 2.69516e-17 0 -5.88595e-10 4.49197e-15 0 -9.81e-08 0 0 0 0 0 0 0.001415 
2 1 0.00283 0 -2.26104e-06 -8.72754e-07 0 -0.00101623 -2.2503e-09 0 1.37849e-06 0 0.707086 0 0.001415 
3 1 0.00565999 0 -8.97924e-06 -7.96628e-06 0 -0.00398389 -1.17569e-09 0 4.98082e-06 0 1.37918 0 0.001415 
4 1 0.00848997 0 -2.00789e-05 -2.69081e-05 0 -0.00880406 4.09473e-09 0 1.0167e-05 0 2.01631 0 0.001415 
5 1 0.0113199 0 -3.54839e-05 -6.27168e-05 0 -0.0153778 1.18234e-08 0 1.63013e-05 0 2.61853 0 0.001415 
6 1 0.0141499 0 -5.51179e-05 -0.00011982 0 -0.0236065 1.81304e-08 0 2.2756e-05 0 3.18595 0 0.001415 
7 1 0.0169798 0 -7.89047e-05 -0.000202071 0 -0.0333917 1.66537e-08 0 2.89181e-05 0 3.71875 0 0.001415 
8 1 0.0198096 0 -0.000106768 -0.000312774 0 -0.0446358 -7.3756e-10 0 3.41952e-05 0 4.21718 0 0.001415 
9 1 0.0226394 0 -0.000138632 -0.000454701 0 -0.0572419 -4.40918e-08 0 3.80234e-05 0 4.68158 0 0.001415 
10 1 0.0254692 0 -0.000174421 -0.000630117 0 -0.0711142 -1.2469e-07 0 3.98749e-05 0 5.11237 0 0.001415 
11 1 0.0282989 0 -0.000214058 -0.000840807 0 -0.0861582 -2.55107e-07 0 3.92661e-05 0 5.51008 0 0.001415 
12 1 0.0311286 0 -0.000257468 -0.0010881 0 -0.102281 -4.48215e-07 0 3.57651e-05 0 5.87533 0 0.001415 
13 1 0.0339582 0 -0.000304575 -0.0013729 0 -0.119392 -7.17509e-07 0 2.89998e-05 0 6.20884 0 0.001415 
14 1 0.0367878 0 -0.000355302 -0.00169572 0 -0.137402 -1.07612e-06 0 1.86642e-05 0 6.51143 0 0.001415 
15 1 0.0396172 0 -0.000409575 -0.0020567 0 -0.156225 -1.5361e-06 0 4.52485e-06 0 6.78403 0 0.001415 
16 1 0.0424466 0 -0.000467317 -0.00245565 0 -0.175778 -2.10922e-06 0 -1.3574e-05 0 7.02762 0 0.001415 
17 1 0.045276 0 -0.000528452 -0.00289207 0 -0.195979 -2.80437e-06 0 -3.57066e-05 0 7.24331 0 0.001415 
18 1 0.0481053 0 -0.000592905 -0.0033652 0 -0.216752 -3.62959e-06 0 -6.18625e-05 0 7.43226 0 0.001415 
19 1 0.0509344 0 -0.0006606 -0.00387404 0 -0.238022 -4.58947e-06 0 -9.19455e-05 0 7.59572 0 0.001415 
20 1 0.0537636 0 -0.00073146 -0.00441739 0 -0.259719 -5.68653e-06 0 -0.000125773 0 7.735 0 0.001415 
21 1 0.0565926 0 -0.00080541 -0.00499387 0 -0.281777 -6.91965e-06 0 -0.000163079 0 7.85144 0 0.001415 
22 1 0.0594215 0 -0.000882372 -0.00560197 0 -0.304132 -8.28443e-06 0 -0.000203515 0 7.94644 0 0.001415 
23 1 0.0622504 0 -0.000962271 -0.00624003 0 -0.326727 -9.77324e-06 0 -0.000246655 0 8.02145 0 0.001415 
24 1 0.0650792 0 -0.00104503 -0.00690636 0 -0.349506 -1.13746e-05 0 -0.000292003 0 8.07792 0 0.001415 
25 1 0.0679079 0 -0.00113057 -0.00759916 0 -0.37242 -1.30734e-05 0 -0.000338996 0 8.11731 0 0.001415 
26 1 0.0707365 0 -0.00121881 -0.00831662 0 -0.395422 -1.4851e-05 0 -0.000387018 0 8.14109 0 0.001415 
27 1 0.0735651 0 -0.00130967 -0.00905693 0 -0.41847 -1.66862e-05 0 -0.000435405 0 8.15072 0 0.001415 
28 1 0.0763935 0 -0.00140309 -0.00981826 0 -0.441525 -1.8554e-05 0 -0.000483455 0 8.14766 0 0.001415 
29 1 0.0792219 0 -0.00149896 -0.0105988 0 -0.464555 -2.04267e-05 0 -0.000530445 0 8.1333 0 0.001415 
30 1 0.0820502 0 -0.00159722 -0.0113969 0 -0.487529 -2.22753e-05 0 -0.000575634 0 8.10904 0 0.001415 
31 1 0.0848784 0 -0.00169778 -0.0122108 0 -0.510421 -2.40684e-05 0 -0.000618284 0 8.0762 0 0.001415 
32 1 0.0877065 0 -0.00180056 -0.0130388 0 -0.533208 -2.57734e-05 0 -0.000657664 0 8.03609 0 0.001415 
33 1 0.0905346 0 -0.00190548 -0.0138796 0 -0.555873 -2.73577e-05 0 -0.00069307 0 7.98993 0 0.001415 
34 1 0.0933626 0 -0.00201245 -0.0147315 0 -0.578398 -2.87886e-05 0 -0.000723832 0 7.93889 0 0.001415 
