ITEM: TIMESTEP
7900000
ITEM: NUMBER OF ATOMS
56
ITEM: BOX BOUNDS ff ff ff
-0.1 0.171215
-0.171215 0.171215
-0.171215 0.171215
ITEM: ATOMS id type x y z vx vy vz fx fy fz omegax omegay omegaz radius 
1 1 3.54865e-16 0 -7.74989e-09 4.49197e-15 0 -9.81e-08 0 0 0 0 0 0 0.001415 
2 1 0.00283 0 1.49684e-06 -2.53744e-06 0 0.00348901 -7.99115e-09 0 -1.1912e-06 0 -2.44584 0 0.001415 
3 1 0.00566 0 5.93194e-06 -1.93774e-05 0 0.0138128 -6.05292e-08 0 -4.71441e-06 0 -4.83018 0 0.001415 
4 1 0.00848999 0 1.32027e-05 -6.36526e-05 0 0.0307972 -1.98939e-07 0 -1.05092e-05 0 -7.15301 0 0.001415 
5 1 0.01132 0 2.32141e-05 -0.000147304 0 0.0542681 -4.61451e-07 0 -1.85153e-05 0 -9.41437 0 0.001415 
6 1 0.0141499 0 3.58717e-05 -0.000281115 0 0.0840516 -8.82966e-07 0 -2.86727e-05 0 -11.6143 0 0.001415 
7 1 0.0169799 0 5.10807e-05 -0.000474751 0 0.119974 -1.49548e-06 0 -4.09216e-05 0 -13.7528 0 0.001415 
8 1 0.0198098 0 6.8747e-05 -0.000736795 0 0.16186 -2.32791e-06 0 -5.52023e-05 0 -15.8299 0 0.001415 
9 1 0.0226398 0 8.87763e-05 -0.00107479 0 0.209538 -3.40635e-06 0 -7.14555e-05 0 -17.8457 0 0.001415 
10 1 0.0254697 0 0.000111075 -0.00149527 0 0.262834 -4.75395e-06 0 -8.96218e-05 0 -19.8004 0 0.001415 
11 1 0.0282996 0 0.00013555 -0.00200381 0 0.321574 -6.3913e-06 0 -0.000109642 0 -21.6939 0 0.001415 
12 1 0.0311295 0 0.000162109 -0.00260505 0 0.385586 -8.33637e-06 0 -0.000131457 0 -23.5265 0 0.001415 
13 1 0.0339593 0 0.000190659 -0.00330279 0 0.454698 -1.06045e-05 0 -0.000155009 0 -25.2984 0 0.001415 
14 1 0.0367892 0 0.000221109 -0.00409994 0 0.528737 -1.32083e-05 0 -0.000180239 0 -27.0096 0 0.001415 
15 1 0.039619 0 0.000253368 -0.00499865 0 0.607533 -1.6159e-05 0 -0.000207088 0 -28.6605 0 0.001415 
16 1 0.0424488 0 0.000287348 -0.00600032 0 0.690915 -1.94644e-05 0 -0.000235499 0 -30.2513 0 0.001415 
17 1 0.0452785 0 0.00032296 -0.00710564 0 0.778713 -2.31309e-05 0 -0.000265414 0 -31.7824 0 0.001415 
18 1 0.0481083 0 0.000360115 -0.00831465 0 0.870759 -2.71628e-05 0 -0.000296775 0 -33.254 0 0.001415 
19 1 0.050938 0 0.00039873 -0.00962677 0 0.966884 -3.15619e-05 0 -0.000329526 0 -34.6666 0 0.001415 
20 1 0.0537678 0 0.000438718 -0.0110409 0 1.06692 -3.63289e-05 0 -0.00036361 0 -36.0205 0 0.001415 
21 1 0.0565975 0 0.000479997 -0.0125553 0 1.17071 -4.14626e-05 0 -0.00039897 0 -37.3163 0 0.001415 
22 1 0.0594271 0 0.000522486 -0.0141678 0 1.27808 -4.69595e-05 0 -0.000435551 0 -38.5545 0 0.001415 
23 1 0.0622568 0 0.000566105 -0.015876 0 1.38888 -5.28155e-05 0 -0.000473297 0 -39.7355 0 0.001415 
24 1 0.0650865 0 0.000610776 -0.017677 0 1.50293 -5.90246e-05 0 -0.000512154 0 -40.8602 0 0.001415 
25 1 0.0679161 0 0.000656424 -0.0195673 0 1.62009 -6.55792e-05 0 -0.000552068 0 -41.929 0 0.001415 
26 1 0.0707457 0 0.000702976 -0.0215435 0 1.74019 -7.24712e-05 0 -0.000592984 0 -42.9428 0 0.001415 
27 1 0.0735753 0 0.00075036 -0.0236017 0 1.86308 -7.96911e-05 0 -0.000634851 0 -43.9023 0 0.001415 
28 1 0.0764049 0 0.000798507 -0.025738 0 1.98861 -8.72282e-05 0 -0.000677616 0 -44.8084 0 0.001415 
29 1 0.0792345 0 0.00084735 -0.0279482 0 2.11663 -9.50709e-05 0 -0.000721229 0 -45.6618 0 0.001415 
30 1 0.082064 0 0.000896827 -0.0302279 0 2.247 -0.000103207 0 -0.000765638 0 -46.4637 0 0.001415 
31 1 0.0848936 0 0.000946875 -0.0325728 0 2.37955 -0.000111625 0 -0.000810795 0 -47.2149 0 0.001415 
32 1 0.0877232 0 0.000997436 -0.0349785 0 2.51417 -0.000120309 0 -0.00085665 0 -47.9166 0 0.001415 
33 1 0.0905527 0 0.00104845 -0.0374404 0 2.65069 -0.000129247 0 -0.000903158 0 -48.5699 0 0.001415 
34 1 0.0933822 0 0.00109988 -0.0399542 0 2.789 -0.000138424 0 -0.000950271 0 -49.1759 0 0.001415 
35 1 0.0962118 0 0.00115165 -0.0425154 0 2.92896 -0.000147825 0 -0.000997944 0 -49.7359 0 0.001415 
36 1 0.0990413 0 0.00120373 -0.0451198 0 3.07044 -0.000157436 0 -0.00104613 0 -50.2513 0 0.001415 
37 1 0.101871 0 0.00125608 -0.0477631 0 3.21331 -0.000167242 0 -0.0010948 0 -50.7233 0 0.001415 
38 1 0.1047 0 0.00130864 -0.0504414 0 3.35746 -0.000177228 0 -0.0011439 0 -51.1536 0 0.001415 
39 1 0.10753 0 0.00136139 -0.0531505 0 3.50277 -0.00018738 0 -0.00119339 0 -51.5434 0 0.001415 
40 1 0.110359 0 0.00141429 -0.0558869 0 3.64913 -0.000197683 0 -0.00124323 0 -51.8946 0 0.001415 
41 1 0.113189 0 0.00146731 -0.058647 0 3.79642 -0.000208122 0 -0.0012934 0 -52.2086 0 0.001415 
42 1 0.116018 0 0.00152041 -0.0614274 0 3.94456 -0.000218684 0 -0.00134385 0 -52.4872 0 0.001415 
43 1 0.118848 0 0.00157358 -0.064225 0 4.09343 -0.000229356 0 -0.00139455 0 -52.7322 0 0.001415 
44 1 0.121677 0 0.00162679 -0.067037 0 4.24295 -0.000240124 0 -0.00144546 0 -52.9454 0 0.001415 
45 1 0.124507 0 0.00168002 -0.0698607 0 4.39304 -0.000250976 0 -0.00149657 0 -53.1287 0 0.001415 
46 1 0.127336 0 0.00173326 -0.0726937 0 4.5436 -0.000261901 0 -0.00154784 0 -53.2842 0 0.001415 
47 1 0.130166 0 0.0017865 -0.075534 0 4.69456 -0.000272886 0 -0.00159925 0 -53.4139 0 0.001415 
48 1 0.132995 0 0.00183972 -0.0783798 0 4.84585 -0.000283923 0 -0.00165076 0 -53.5199 0 0.001415 
49 1 0.135825 0 0.00189291 -0.0812295 0 4.99742 -0.000295 0 -0.00170237 0 -53.6044 0 0.001415 
50 1 0.138654 0 0.00194609 -0.084082 0 5.14919 -0.00030611 0 -0.00175405 0 -53.6697 0 0.001415 
51 1 0.141484 0 0.00199924 -0.0869362 0 5.30113 -0.000317246 0 -0.00180578 0 -53.718 0 0.001415 
52 1 0.144313 0 0.00205238 -0.0897915 0 5.45317 -0.000328398 0 -0.00185756 0 -53.7519 0 0.001415 
53 1 0.147143 0 0.0021055 -0.0926475 0 5.6053 -0.000339564 0 -0.00190935 0 -53.7738 0 0.001415 
54 1 0.149972 0 0.00215861 -0.0955043 0 5.75748 -0.000350736 0 -0.00196117 0 -53.7862 0 0.001415 
55 1 0.152802 0 0.00221174 -0.0983619 0 5.90967 -0.000361912 0 -0.00201299 0 -53.7918 0 0.001415 
56 1 0.155631 0 0.00226487 -0.10122 0 6.06188 -0.000373089 0 -0.00206481 0 -53.7932 0 0.001415 
