ITEM: TIMESTEP
5300000
ITEM: NUMBER OF ATOMS
56
ITEM: BOX BOUNDS ff ff ff
-0.1 0.171215
-0.171215 0.171215
-0.171215 0.171215
ITEM: ATOMS id type x y z vx vy vz fx fy fz omegax omegay omegaz radius 
1 1 2.38074e-16 0 -5.19929e-09 4.49197e-15 0 -9.81e-08 0 0 0 0 0 0 0.001415 
2 1 0.00283 0 6.00886e-07 -1.27218e-06 0 0.00437014 -1.38866e-08 0 -2.62345e-07 0 -3.06369 0 0.001415 
3 1 0.00566 0 2.37809e-06 -9.71973e-06 0 0.0173026 -1.04837e-07 0 -1.06317e-06 0 -6.05108 0 0.001415 
4 1 0.00849 0 5.27718e-06 -3.18344e-05 0 0.0385815 -3.44485e-07 0 -2.41955e-06 0 -8.96217 0 0.001415 
5 1 0.01132 0 9.24901e-06 -7.34164e-05 0 0.0679907 -7.98738e-07 0 -4.34864e-06 0 -11.797 0 0.001415 
6 1 0.01415 0 1.42445e-05 -0.000139598 0 0.105315 -1.52794e-06 0 -6.86764e-06 0 -14.5556 0 0.001415 
7 1 0.01698 0 2.02148e-05 -0.00023487 0 0.150338 -2.58727e-06 0 -9.99364e-06 0 -17.2381 0 0.001415 
8 1 0.01981 0 2.71111e-05 -0.000363102 0 0.202844 -4.02655e-06 0 -1.37436e-05 0 -19.8444 0 0.001415 
9 1 0.02264 0 3.48849e-05 -0.000527572 0 0.262619 -5.8905e-06 0 -1.81341e-05 0 -22.3747 0 0.001415 
10 1 0.02547 0 4.3488e-05 -0.000730994 0 0.329447 -8.21927e-06 0 -2.31815e-05 0 -24.8292 0 0.001415 
11 1 0.0282999 0 5.28726e-05 -0.000975539 0 0.403114 -1.10479e-05 0 -2.89013e-05 0 -27.2078 0 0.001415 
12 1 0.0311299 0 6.29912e-05 -0.00126287 0 0.483405 -1.44071e-05 0 -3.53086e-05 0 -29.5109 0 0.001415 
13 1 0.0339599 0 7.37968e-05 -0.00159417 0 0.570107 -1.83232e-05 0 -4.24175e-05 0 -31.7385 0 0.001415 
14 1 0.0367899 0 8.52432e-05 -0.00197015 0 0.663006 -2.28182e-05 0 -5.02412e-05 0 -33.891 0 0.001415 
15 1 0.0396199 0 9.72845e-05 -0.00239113 0 0.761891 -2.79101e-05 0 -5.87918e-05 0 -35.9685 0 0.001415 
16 1 0.0424498 0 0.000109876 -0.00285701 0 0.866549 -3.3613e-05 0 -6.80801e-05 0 -37.9714 0 0.001415 
17 1 0.0452798 0 0.000122973 -0.00336733 0 0.97677 -3.99372e-05 0 -7.81155e-05 0 -39.9 0 0.001415 
18 1 0.0481098 0 0.000136533 -0.00392132 0 1.09234 -4.68897e-05 0 -8.89058e-05 0 -41.7547 0 0.001415 
19 1 0.0509397 0 0.000150513 -0.00451788 0 1.21306 -5.44742e-05 0 -0.000100457 0 -43.5359 0 0.001415 
20 1 0.0537697 0 0.000164872 -0.00515567 0 1.33872 -6.26906e-05 0 -0.000112774 0 -45.2442 0 0.001415 
21 1 0.0565997 0 0.000179571 -0.00583309 0 1.46911 -7.15367e-05 0 -0.00012586 0 -46.8801 0 0.001415 
22 1 0.0594296 0 0.00019457 -0.00654834 0 1.60402 -8.10068e-05 0 -0.000139714 0 -48.4441 0 0.001415 
23 1 0.0622596 0 0.000209832 -0.00729946 0 1.74326 -9.10932e-05 0 -0.000154335 0 -49.9369 0 0.001415 
24 1 0.0650896 0 0.000225321 -0.00808431 0 1.88662 -0.000101785 0 -0.00016972 0 -51.3593 0 0.001415 
25 1 0.0679195 0 0.000241002 -0.00890067 0 2.03391 -0.00011307 0 -0.000185863 0 -52.7119 0 0.001415 
26 1 0.0707495 0 0.000256843 -0.0097462 0 2.18493 -0.000124933 0 -0.000202756 0 -53.9957 0 0.001415 
27 1 0.0735794 0 0.000272813 -0.0106185 0 2.33949 -0.000137357 0 -0.000220389 0 -55.2115 0 0.001415 
28 1 0.0764094 0 0.00028888 -0.0115152 0 2.49739 -0.000150325 0 -0.000238749 0 -56.3604 0 0.001415 
29 1 0.0792393 0 0.000305018 -0.0124338 0 2.65845 -0.000163815 0 -0.000257822 0 -57.4433 0 0.001415 
30 1 0.0820693 0 0.0003212 -0.013372 0 2.82249 -0.000177809 0 -0.00027759 0 -58.4614 0 0.001415 
31 1 0.0848992 0 0.000337403 -0.0143272 0 2.98931 -0.000192282 0 -0.000298035 0 -59.4159 0 0.001415 
32 1 0.0877292 0 0.000353603 -0.0152973 0 3.15874 -0.000207212 0 -0.000319136 0 -60.308 0 0.001415 
33 1 0.0905592 0 0.00036978 -0.01628 0 3.33062 -0.000222574 0 -0.00034087 0 -61.1392 0 0.001415 
34 1 0.0933891 0 0.000385915 -0.017273 0 3.50476 -0.000238344 0 -0.000363212 0 -61.9108 0 0.001415 
35 1 0.0962191 0 0.000401992 -0.0182744 0 3.681 -0.000254498 0 -0.000386134 0 -62.6243 0 0.001415 
36 1 0.099049 0 0.000417997 -0.0192822 0 3.85918 -0.000271009 0 -0.00040961 0 -63.2814 0 0.001415 
37 1 0.101879 0 0.000433916 -0.0202947 0 4.03914 -0.000287852 0 -0.000433609 0 -63.8837 0 0.001415 
38 1 0.104709 0 0.000449739 -0.0213101 0 4.22072 -0.000305002 0 -0.0004581 0 -64.4329 0 0.001415 
39 1 0.107539 0 0.000465458 -0.0223271 0 4.40379 -0.000322433 0 -0.000483052 0 -64.9311 0 0.001415 
40 1 0.110369 0 0.000481065 -0.0233442 0 4.5882 -0.000340121 0 -0.000508431 0 -65.38 0 0.001415 
41 1 0.113199 0 0.000496556 -0.0243604 0 4.77382 -0.00035804 0 -0.000534204 0 -65.7818 0 0.001415 
42 1 0.116029 0 0.000511928 -0.0253746 0 4.9605 -0.000376168 0 -0.000560338 0 -66.1385 0 0.001415 
43 1 0.118859 0 0.000527181 -0.026386 0 5.14813 -0.000394482 0 -0.000586797 0 -66.4523 0 0.001415 
44 1 0.121689 0 0.000542315 -0.0273939 0 5.3366 -0.000412958 0 -0.000613549 0 -66.7257 0 0.001415 
45 1 0.124519 0 0.000557333 -0.028398 0 5.52578 -0.000431577 0 -0.00064056 0 -66.9609 0 0.001415 
46 1 0.127349 0 0.000572241 -0.0293979 0 5.71557 -0.000450317 0 -0.000667797 0 -67.1605 0 0.001415 
47 1 0.130179 0 0.000587044 -0.0303935 0 5.90588 -0.00046916 0 -0.000695229 0 -67.3271 0 0.001415 
48 1 0.133009 0 0.000601751 -0.0313848 0 6.09662 -0.000488089 0 -0.000722824 0 -67.4633 0 0.001415 
49 1 0.135838 0 0.000616371 -0.0323721 0 6.28771 -0.000507086 0 -0.000750555 0 -67.572 0 0.001415 
50 1 0.138668 0 0.000630916 -0.0333557 0 6.47906 -0.000526139 0 -0.000778394 0 -67.656 0 0.001415 
51 1 0.141498 0 0.0006454 -0.0343361 0 6.67062 -0.000545232 0 -0.000806317 0 -67.7183 0 0.001415 
52 1 0.144328 0 0.000659835 -0.0353141 0 6.86233 -0.000564356 0 -0.000834301 0 -67.762 0 0.001415 
53 1 0.147158 0 0.000674239 -0.0362904 0 7.05414 -0.0005835 0 -0.000862327 0 -67.7902 0 0.001415 
54 1 0.149988 0 0.000688628 -0.0372659 0 7.24602 -0.000602655 0 -0.00089038 0 -67.8062 0 0.001415 
55 1 0.152818 0 0.000703018 -0.0382418 0 7.43792 -0.000621818 0 -0.000918446 0 -67.8134 0 0.001415 
56 1 0.155648 0 0.00071741 -0.0392178 0 7.62983 -0.000640981 0 -0.000946517 0 -67.8152 0 0.001415 
