ITEM: TIMESTEP
12200000
ITEM: NUMBER OF ATOMS
56
ITEM: BOX BOUNDS ff ff ff
-0.1 0.171215
-0.171215 0.171215
-0.171215 0.171215
ITEM: ATOMS id type x y z vx vy vz fx fy fz omegax omegay omegaz radius 
1 1 5.4802e-16 0 -1.19682e-08 4.49197e-15 0 -9.81e-08 0 0 0 0 0 0 0.001415 
2 1 0.00283 0 1.45747e-06 -1.79594e-06 0 0.00253673 -3.88024e-09 0 -1.13611e-06 0 -1.77832 0 0.001415 
3 1 0.00566 0 5.78883e-06 -1.37478e-05 0 0.010043 -2.93353e-08 0 -4.49676e-06 0 -3.51197 0 0.001415 
4 1 0.00848999 0 1.28891e-05 -4.51796e-05 0 0.0223922 -9.64275e-08 0 -1.00245e-05 0 -5.20096 0 0.001415 
5 1 0.01132 0 2.26653e-05 -0.000104568 0 0.039458 -2.23732e-07 0 -1.76621e-05 0 -6.84527 0 0.001415 
6 1 0.0141499 0 3.50247e-05 -0.000199566 0 0.061114 -4.28164e-07 0 -2.73524e-05 0 -8.44495 0 0.001415 
7 1 0.0169799 0 4.98745e-05 -0.000337032 0 0.0872337 -7.25473e-07 0 -3.90382e-05 0 -10 0 0.001415 
8 1 0.0198099 0 6.71223e-05 -0.000523054 0 0.117691 -1.12961e-06 0 -5.26627e-05 0 -11.5105 0 0.001415 
9 1 0.0226398 0 8.6676e-05 -0.00076298 0 0.152359 -1.65335e-06 0 -6.81689e-05 0 -12.9764 0 0.001415 
10 1 0.0254697 0 0.000108444 -0.00106144 0 0.191113 -2.30827e-06 0 -8.55001e-05 0 -14.3978 0 0.001415 
11 1 0.0282996 0 0.000132334 -0.00142239 0 0.233826 -3.10423e-06 0 -0.0001046 0 -15.7749 0 0.001415 
12 1 0.0311295 0 0.000158256 -0.00184911 0 0.280374 -4.05025e-06 0 -0.000125412 0 -17.1077 0 0.001415 
13 1 0.0339593 0 0.00018612 -0.00234428 0 0.330629 -5.1539e-06 0 -0.000147879 0 -18.3962 0 0.001415 
14 1 0.0367892 0 0.000215835 -0.00290996 0 0.384469 -6.42162e-06 0 -0.000171947 0 -19.6408 0 0.001415 
15 1 0.039619 0 0.000247314 -0.00354767 0 0.441768 -7.85871e-06 0 -0.000197558 0 -20.8415 0 0.001415 
16 1 0.0424488 0 0.000280469 -0.00425838 0 0.502402 -9.46946e-06 0 -0.000224657 0 -21.9985 0 0.001415 
17 1 0.0452786 0 0.000315213 -0.00504257 0 0.566249 -1.1257e-05 0 -0.00025319 0 -23.112 0 0.001415 
18 1 0.0481084 0 0.00035146 -0.00590025 0 0.633185 -1.32238e-05 0 -0.0002831 0 -24.1824 0 0.001415 
19 1 0.0509381 0 0.000389126 -0.006831 0 0.703088 -1.53706e-05 0 -0.000314334 0 -25.2098 0 0.001415 
20 1 0.0537679 0 0.000428129 -0.00783399 0 0.775838 -1.76984e-05 0 -0.000346837 0 -26.1946 0 0.001415 
21 1 0.0565976 0 0.000468387 -0.00890803 0 0.851314 -2.02061e-05 0 -0.000380555 0 -27.1371 0 0.001415 
22 1 0.0594273 0 0.00050982 -0.0100516 0 0.929397 -2.28931e-05 0 -0.000415435 0 -28.0377 0 0.001415 
23 1 0.062257 0 0.000552351 -0.0112629 0 1.00997 -2.57566e-05 0 -0.000451424 0 -28.8967 0 0.001415 
24 1 0.0650866 0 0.000595904 -0.0125398 0 1.09291 -2.87945e-05 0 -0.000488469 0 -29.7148 0 0.001415 
25 1 0.0679163 0 0.000640405 -0.0138799 0 1.17811 -3.20032e-05 0 -0.00052652 0 -30.4922 0 0.001415 
26 1 0.0707459 0 0.000685781 -0.0152808 0 1.26546 -3.53787e-05 0 -0.000565524 0 -31.2297 0 0.001415 
27 1 0.0735755 0 0.000731964 -0.0167397 0 1.35483 -3.89165e-05 0 -0.000605431 0 -31.9276 0 0.001415 
28 1 0.0764051 0 0.000778885 -0.0182537 0 1.44612 -4.26114e-05 0 -0.000646192 0 -32.5867 0 0.001415 
29 1 0.0792347 0 0.000826481 -0.01982 0 1.53923 -4.64585e-05 0 -0.000687759 0 -33.2075 0 0.001415 
30 1 0.0820643 0 0.000874687 -0.0214353 0 1.63403 -5.04512e-05 0 -0.000730082 0 -33.7908 0 0.001415 
31 1 0.0848939 0 0.000923445 -0.0230967 0 1.73044 -5.45841e-05 0 -0.000773115 0 -34.3372 0 0.001415 
32 1 0.0877235 0 0.000972696 -0.0248009 0 1.82833 -5.88497e-05 0 -0.000816812 0 -34.8477 0 0.001415 
33 1 0.090553 0 0.00102239 -0.0265448 0 1.92763 -6.32422e-05 0 -0.000861128 0 -35.3229 0 0.001415 
34 1 0.0933826 0 0.00107247 -0.0283252 0 2.02821 -6.77542e-05 0 -0.000906019 0 -35.7637 0 0.001415 
35 1 0.0962122 0 0.00112289 -0.0301391 0 2.13 -7.23785e-05 0 -0.000951442 0 -36.1711 0 0.001415 
36 1 0.0990417 0 0.0011736 -0.0319833 0 2.23289 -7.71082e-05 0 -0.000997355 0 -36.546 0 0.001415 
37 1 0.101871 0 0.00122456 -0.0338549 0 2.3368 -8.19359e-05 0 -0.00104372 0 -36.8893 0 0.001415 
38 1 0.104701 0 0.00127573 -0.035751 0 2.44164 -8.6854e-05 0 -0.00109049 0 -37.2023 0 0.001415 
39 1 0.10753 0 0.00132707 -0.0376688 0 2.54732 -9.1856e-05 0 -0.00113764 0 -37.4859 0 0.001415 
40 1 0.11036 0 0.00137856 -0.0396057 0 2.65376 -9.69339e-05 0 -0.00118513 0 -37.7413 0 0.001415 
41 1 0.113189 0 0.00143015 -0.0415592 0 2.76088 -0.000102081 0 -0.00123291 0 -37.9697 0 0.001415 
42 1 0.116019 0 0.00148183 -0.0435268 0 2.86862 -0.000107291 0 -0.00128097 0 -38.1724 0 0.001415 
43 1 0.118848 0 0.00153356 -0.0455065 0 2.97689 -0.000112556 0 -0.00132926 0 -38.3506 0 0.001415 
44 1 0.121678 0 0.00158533 -0.0474961 0 3.08564 -0.000117871 0 -0.00137776 0 -38.5057 0 0.001415 
45 1 0.124507 0 0.00163711 -0.0494939 0 3.19479 -0.000123228 0 -0.00142645 0 -38.6391 0 0.001415 
46 1 0.127337 0 0.0016889 -0.0514982 0 3.30429 -0.000128623 0 -0.00147528 0 -38.7522 0 0.001415 
47 1 0.130167 0 0.00174068 -0.0535075 0 3.41408 -0.000134049 0 -0.00152425 0 -38.8465 0 0.001415 
48 1 0.132996 0 0.00179244 -0.0555205 0 3.52411 -0.000139501 0 -0.00157332 0 -38.9236 0 0.001415 
49 1 0.135826 0 0.00184418 -0.0575362 0 3.63434 -0.000144975 0 -0.00162247 0 -38.9851 0 0.001415 
50 1 0.138655 0 0.0018959 -0.0595537 0 3.74472 -0.000150465 0 -0.0016717 0 -39.0326 0 0.001415 
51 1 0.141485 0 0.00194759 -0.0615724 0 3.85522 -0.000155969 0 -0.00172097 0 -39.0677 0 0.001415 
52 1 0.144314 0 0.00199926 -0.0635918 0 3.96581 -0.000161481 0 -0.00177028 0 -39.0924 0 0.001415 
53 1 0.147144 0 0.00205092 -0.0656117 0 4.07644 -0.000167001 0 -0.00181962 0 -39.1083 0 0.001415 
54 1 0.149973 0 0.00210257 -0.0676321 0 4.18712 -0.000172523 0 -0.00186897 0 -39.1173 0 0.001415 
55 1 0.152803 0 0.00215423 -0.0696531 0 4.29781 -0.000178048 0 -0.00191833 0 -39.1214 0 0.001415 
56 1 0.155632 0 0.00220589 -0.0716743 0 4.40851 -0.000183573 0 -0.00196769 0 -39.1224 0 0.001415 
