ITEM: TIMESTEP
200000
ITEM: NUMBER OF ATOMS
56
ITEM: BOX BOUNDS ff ff ff
-0.1 0.171215
-0.171215 0.171215
-0.171215 0.171215
ITEM: ATOMS id type x y z vx vy vz fx fy fz omegax omegay omegaz radius 
1 1 8.98369e-18 0 -1.96195e-10 4.49197e-15 0 -9.81e-08 0 0 0 0 0 0 0.001415 
2 1 0.00283 0 4.32459e-07 1.10755e-07 0 -0.00152838 -1.69248e-08 0 -2.45975e-05 0 1.03638 0 0.001415 
3 1 0.00566 0 1.64037e-06 1.80168e-06 0 -0.00580803 -1.57065e-08 0 -9.57081e-05 0 1.94452 0 0.001415 
4 1 0.00849 0 3.5134e-06 6.06849e-06 0 -0.0124766 1.69813e-08 0 -0.000209685 0 2.72503 0 0.001415 
5 1 0.01132 0 5.94162e-06 1.33756e-05 0 -0.0211748 8.93256e-08 0 -0.000362847 0 3.37952 0 0.001415 
6 1 0.01415 0 8.81549e-06 2.37474e-05 0 -0.0315494 2.05266e-07 0 -0.000551449 0 3.91093 0 0.001415 
7 1 0.01698 0 1.20262e-05 3.68614e-05 0 -0.0432578 3.64251e-07 0 -0.000771637 0 4.32373 0 0.001415 
8 1 0.01981 0 1.54661e-05 5.21421e-05 0 -0.0559721 5.61972e-07 0 -0.00101941 0 4.62411 0 0.001415 
9 1 0.02264 0 1.90291e-05 6.88518e-05 0 -0.0693848 7.90833e-07 0 -0.0012906 0 4.82001 0 0.001415 
10 1 0.02547 0 2.26109e-05 8.61755e-05 0 -0.0832132 1.04002e-06 0 -0.00158081 0 4.92111 0 0.001415 
11 1 0.0283 0 2.61101e-05 0.000103296 0 -0.097204 1.29666e-06 0 -0.00188543 0 4.93867 0 0.001415 
12 1 0.03113 0 2.94282e-05 0.000119453 0 -0.111138 1.54649e-06 0 -0.0021996 0 4.8854 0 0.001415 
13 1 0.03396 0 3.24704e-05 0.000133997 0 -0.124835 1.77451e-06 0 -0.00251826 0 4.77514 0 0.001415 
14 1 0.03679 0 3.5146e-05 0.000146407 0 -0.138153 1.96661e-06 0 -0.0028361 0 4.6226 0 0.001415 
15 1 0.03962 0 3.73692e-05 0.000156312 0 -0.150994 2.11034e-06 0 -0.00314766 0 4.44298 0 0.001415 
16 1 0.04245 0 3.90595e-05 0.000163478 0 -0.163303 2.19614e-06 0 -0.00344733 0 4.25157 0 0.001415 
17 1 0.04528 0 4.0142e-05 0.000167789 0 -0.175068 2.21865e-06 0 -0.0037294 0 4.06336 0 0.001415 
18 1 0.04811 0 4.05482e-05 0.00016921 0 -0.186319 2.17763e-06 0 -0.00398817 0 3.89264 0 0.001415 
19 1 0.05094 0 4.02165e-05 0.000167741 0 -0.197124 2.07872e-06 0 -0.00421797 0 3.75252 0 0.001415 
20 1 0.05377 0 3.90921e-05 0.000163373 0 -0.207588 1.93412e-06 0 -0.00441331 0 3.65465 0 0.001415 
21 1 0.0566 0 3.71276e-05 0.000156032 0 -0.217843 1.7624e-06 0 -0.00456893 0 3.60879 0 0.001415 
22 1 0.05943 0 3.42832e-05 0.000145541 0 -0.22805 1.5889e-06 0 -0.00467994 0 3.62255 0 0.001415 
23 1 0.06226 0 3.0527e-05 0.000131577 0 -0.238385 1.44421e-06 0 -0.00474197 0 3.7012 0 0.001415 
24 1 0.06509 0 2.58349e-05 0.000113657 0 -0.249038 1.3645e-06 0 -0.00475129 0 3.84748 0 0.001415 
25 1 0.06792 0 2.01905e-05 9.1123e-05 0 -0.2602 1.38722e-06 0 -0.00470499 0 4.06157 0 0.001415 
26 1 0.07075 0 1.35852e-05 6.31537e-05 0 -0.272061 1.55331e-06 0 -0.00460114 0 4.34118 0 0.001415 
27 1 0.0735799 0 6.01812e-06 2.87903e-05 0 -0.284801 1.89988e-06 0 -0.00443895 0 4.68162 0 0.001415 
28 1 0.0764099 0 -2.50453e-06 -1.30254e-05 0 -0.298584 2.46199e-06 0 -0.00421897 0 5.07612 0 0.001415 
29 1 0.0792399 0 -1.19695e-05 -6.33999e-05 0 -0.31355 3.26664e-06 0 -0.00394321 0 5.51614 0 0.001415 
30 1 0.0820699 0 -2.23569e-05 -0.00012343 0 -0.329816 4.33255e-06 0 -0.00361522 0 5.99172 0 0.001415 
31 1 0.0848999 0 -3.3641e-05 -0.000194142 0 -0.347466 5.66618e-06 0 -0.00324022 0 6.49202 0 0.001415 
32 1 0.0877298 0 -4.57905e-05 -0.000276433 0 -0.366555 7.26e-06 0 -0.002825 0 7.00573 0 0.001415 
33 1 0.0905598 0 -5.87692e-05 -0.000371022 0 -0.387106 9.09197e-06 0 -0.00237789 0 7.52159 0 0.001415 
34 1 0.0933898 0 -7.2537e-05 -0.000478402 0 -0.409107 1.11254e-05 0 -0.00190851 0 8.02878 0 0.001415 
35 1 0.0962197 0 -8.70501e-05 -0.000598822 0 -0.432522 1.33089e-05 0 -0.00142756 0 8.51737 0 0.001415 
36 1 0.0990497 0 -0.000102262 -0.000732265 0 -0.457284 1.55789e-05 0 -0.000946356 0 8.97858 0 0.001415 
37 1 0.10188 0 -0.000118124 -0.000878453 0 -0.483305 1.78638e-05 0 -0.000476456 0 9.40502 0 0.001415 
38 1 0.10471 0 -0.000134588 -0.00103686 0 -0.510479 2.00854e-05 0 -2.91114e-05 0 9.79078 0 0.001415 
39 1 0.10754 0 -0.000151602 -0.00120675 0 -0.538683 2.2167e-05 0 0.000385234 0 10.1315 0 0.001415 
40 1 0.11037 0 -0.000169117 -0.00138719 0 -0.567785 2.40349e-05 0 0.000757433 0 10.4242 0 0.001415 
41 1 0.113199 0 -0.000187084 -0.00157709 0 -0.597648 2.56249e-05 0 0.00108006 0 10.6674 0 0.001415 
42 1 0.116029 0 -0.000205455 -0.00177526 0 -0.62813 2.68853e-05 0 0.00134772 0 10.8606 0 0.001415 
43 1 0.118859 0 -0.000224184 -0.00198045 0 -0.65909 2.77806e-05 0 0.00155721 0 11.0047 0 0.001415 
44 1 0.121689 0 -0.000243229 -0.00219137 0 -0.690392 2.82906e-05 0 0.00170753 0 11.1016 0 0.001415 
45 1 0.124519 0 -0.000262547 -0.00240674 0 -0.721904 2.84125e-05 0 0.00179971 0 11.154 0 0.001415 
46 1 0.127349 0 -0.0002821 -0.00262535 0 -0.753507 2.81571e-05 0 0.00183651 0 11.1662 0 0.001415 
47 1 0.130179 0 -0.000301854 -0.00284606 0 -0.785093 2.75483e-05 0 0.00182201 0 11.1436 0 0.001415 
48 1 0.133009 0 -0.000321775 -0.00306789 0 -0.816573 2.66165e-05 0 0.00176117 0 11.0935 0 0.001415 
49 1 0.135839 0 -0.000341833 -0.00329001 0 -0.84788 2.53985e-05 0 0.00165941 0 11.0251 0 0.001415 
50 1 0.138669 0 -0.000362002 -0.00351184 0 -0.878978 2.39332e-05 0 0.00152235 0 10.95 0 0.001415 
51 1 0.141499 0 -0.000382254 -0.0037331 0 -0.909868 2.22595e-05 0 0.00135567 0 10.8828 0 0.001415 
52 1 0.144329 0 -0.000402568 -0.00395384 0 -0.940595 2.04172e-05 0 0.00116522 0 10.8406 0 0.001415 
53 1 0.147159 0 -0.00042292 -0.00417453 0 -0.971258 1.84506e-05 0 0.000957315 0 10.8442 0 0.001415 
54 1 0.149989 0 -0.000443289 -0.0043961 0 -1.00202 1.64059e-05 0 0.000739072 0 10.9174 0 0.001415 
55 1 0.152818 0 -0.000463657 -0.00461952 0 -1.03306 1.43621e-05 0 0.000525589 0 10.9947 0 0.001415 
56 1 0.155648 0 -0.000484024 -0.0048438 0 -1.06422 1.23005e-05 0 0.000309965 0 11.015 0 0.001415 
