ITEM: TIMESTEP
4800000
ITEM: NUMBER OF ATOMS
56
ITEM: BOX BOUNDS ff ff ff
-0.1 0.171215
-0.171215 0.171215
-0.171215 0.171215
ITEM: ATOMS id type x y z vx vy vz fx fy fz omegax omegay omegaz radius 
1 1 2.15614e-16 0 -4.70879e-09 4.49197e-15 0 -9.81e-08 0 0 0 0 0 0 0.001415 
2 1 0.00283 0 2.76079e-06 5.4766e-06 0 -0.00407578 -9.6613e-09 0 -2.12693e-06 0 2.85829 0 0.001415 
3 1 0.00565999 0 1.09276e-05 4.17529e-05 0 -0.0161446 -7.08624e-08 0 -8.40671e-06 0 5.64892 0 0.001415 
4 1 0.00848996 0 2.43379e-05 0.000137316 0 -0.036015 -2.31858e-07 0 -1.87184e-05 0 8.37189 0 0.001415 
5 1 0.0113199 0 4.28341e-05 0.000318284 0 -0.0634954 -5.37575e-07 0 -3.29416e-05 0 11.0272 0 0.001415 
6 1 0.0141498 0 6.62586e-05 0.000608473 0 -0.0983939 -1.0297e-06 0 -5.09566e-05 0 13.6149 0 0.001415 
7 1 0.0169797 0 9.44539e-05 0.00102946 0 -0.140519 -1.74654e-06 0 -7.2644e-05 0 16.1349 0 0.001415 
8 1 0.0198095 0 0.000127263 0.00160066 0 -0.189679 -2.7236e-06 0 -9.78853e-05 0 18.5873 0 0.001415 
9 1 0.0226392 0 0.00016453 0.00233939 0 -0.245681 -3.99291e-06 0 -0.000126562 0 20.972 0 0.001415 
10 1 0.0254689 0 0.000206097 0.00326091 0 -0.308335 -5.58371e-06 0 -0.000158558 0 23.2892 0 0.001415 
11 1 0.0282986 0 0.000251809 0.00437856 0 -0.377449 -7.52249e-06 0 -0.000193754 0 25.5389 0 0.001415 
12 1 0.0311281 0 0.000301511 0.00570376 0 -0.452831 -9.83235e-06 0 -0.000232037 0 27.721 0 0.001415 
13 1 0.0339576 0 0.000355049 0.00724614 0 -0.534291 -1.25342e-05 0 -0.000273289 0 29.8357 0 0.001415 
14 1 0.036787 0 0.00041227 0.00901358 0 -0.621636 -1.56461e-05 0 -0.000317397 0 31.883 0 0.001415 
15 1 0.0396164 0 0.000473021 0.0110123 0 -0.714676 -1.9183e-05 0 -0.000364247 0 33.8631 0 0.001415 
16 1 0.0424457 0 0.000537151 0.0132469 0 -0.813221 -2.31579e-05 0 -0.000413727 0 35.7761 0 0.001415 
17 1 0.0452749 0 0.00060451 0.0157206 0 -0.917081 -2.75811e-05 0 -0.000465726 0 37.6221 0 0.001415 
18 1 0.048104 0 0.000674951 0.0184351 0 -1.02607 -3.24604e-05 0 -0.000520133 0 39.4013 0 0.001415 
19 1 0.050933 0 0.000748327 0.0213907 0 -1.13999 -3.78013e-05 0 -0.000576839 0 41.1139 0 0.001415 
20 1 0.053762 0 0.000824493 0.0245866 0 -1.25866 -4.36072e-05 0 -0.000635738 0 42.7601 0 0.001415 
21 1 0.0565909 0 0.000903307 0.0280206 0 -1.38189 -4.98794e-05 0 -0.000696723 0 44.3403 0 0.001415 
22 1 0.0594197 0 0.000984629 0.0316896 0 -1.50949 -5.66166e-05 0 -0.000759691 0 45.8547 0 0.001415 
23 1 0.0622485 0 0.00106832 0.0355895 0 -1.64128 -6.38164e-05 0 -0.000824538 0 47.3037 0 0.001415 
24 1 0.0650772 0 0.00115424 0.0397152 0 -1.77708 -7.14738e-05 0 -0.000891166 0 48.6877 0 0.001415 
25 1 0.0679058 0 0.00124227 0.0440607 0 -1.91669 -7.9582e-05 0 -0.000959474 0 50.0073 0 0.001415 
26 1 0.0707344 0 0.00133227 0.0486192 0 -2.05995 -8.81336e-05 0 -0.00102937 0 51.2628 0 0.001415 
27 1 0.0735629 0 0.00142411 0.0533836 0 -2.20666 -9.71181e-05 0 -0.00110075 0 52.455 0 0.001415 
28 1 0.0763914 0 0.00151766 0.0583457 0 -2.35665 -0.000106524 0 -0.00117353 0 53.5844 0 0.001415 
29 1 0.0792198 0 0.00161282 0.0634971 0 -2.50975 -0.00011634 0 -0.00124762 0 54.6518 0 0.001415 
30 1 0.0820481 0 0.00170946 0.0688288 0 -2.66577 -0.000126551 0 -0.00132293 0 55.6579 0 0.001415 
31 1 0.0848764 0 0.00180747 0.0743317 0 -2.82455 -0.000137143 0 -0.00139938 0 56.6037 0 0.001415 
32 1 0.0877047 0 0.00190674 0.0799961 0 -2.98592 -0.0001481 0 -0.00147688 0 57.49 0 0.001415 
33 1 0.0905329 0 0.00200716 0.0858123 0 -3.14972 -0.000159404 0 -0.00155536 0 58.318 0 0.001415 
34 1 0.0933611 0 0.00210863 0.0917705 0 -3.31577 -0.000171038 0 -0.00163473 0 59.0886 0 0.001415 
35 1 0.0961892 0 0.00221105 0.0978605 0 -3.48391 -0.000182984 0 -0.00171494 0 59.8031 0 0.001415 
36 1 0.0990173 0 0.00231434 0.104073 0 -3.654 -0.000195224 0 -0.00179589 0 60.4629 0 0.001415 
37 1 0.101845 0 0.00241839 0.110397 0 -3.82588 -0.000207738 0 -0.00187753 0 61.0692 0 0.001415 
38 1 0.104673 0 0.00252313 0.116824 0 -3.99939 -0.000220507 0 -0.0019598 0 61.6236 0 0.001415 
39 1 0.107502 0 0.00262847 0.123343 0 -4.1744 -0.000233511 0 -0.00204262 0 62.1277 0 0.001415 
40 1 0.11033 0 0.00273434 0.129946 0 -4.35077 -0.000246731 0 -0.00212595 0 62.5831 0 0.001415 
41 1 0.113158 0 0.00284068 0.136624 0 -4.52835 -0.000260148 0 -0.00220972 0 62.9917 0 0.001415 
42 1 0.115986 0 0.0029474 0.143367 0 -4.70702 -0.000273742 0 -0.00229389 0 63.3555 0 0.001415 
43 1 0.118814 0 0.00305446 0.150168 0 -4.88666 -0.000287496 0 -0.0023784 0 63.6763 0 0.001415 
44 1 0.121641 0 0.0031618 0.157019 0 -5.06715 -0.000301391 0 -0.0024632 0 63.9564 0 0.001415 
45 1 0.124469 0 0.00326937 0.163913 0 -5.24838 -0.000315409 0 -0.00254827 0 64.1981 0 0.001415 
46 1 0.127297 0 0.00337711 0.170842 0 -5.43023 -0.000329533 0 -0.00263355 0 64.4036 0 0.001415 
47 1 0.130125 0 0.003485 0.1778 0 -5.61262 -0.000343749 0 -0.00271901 0 64.5755 0 0.001415 
48 1 0.132953 0 0.00359299 0.184782 0 -5.79545 -0.00035804 0 -0.00280462 0 64.7165 0 0.001415 
49 1 0.135781 0 0.00370107 0.191783 0 -5.97863 -0.000372393 0 -0.00289035 0 64.8291 0 0.001415 
50 1 0.138609 0 0.00380919 0.198798 0 -6.1621 -0.000386795 0 -0.00297617 0 64.9164 0 0.001415 
51 1 0.141437 0 0.00391736 0.205824 0 -6.34578 -0.000401234 0 -0.00306206 0 64.9813 0 0.001415 
52 1 0.144265 0 0.00402554 0.212857 0 -6.52962 -0.000415701 0 -0.003148 0 65.0269 0 0.001415 
53 1 0.147093 0 0.00413374 0.219895 0 -6.71356 -0.000430186 0 -0.00323397 0 65.0564 0 0.001415 
54 1 0.149921 0 0.00424195 0.226936 0 -6.89756 -0.000444682 0 -0.00331996 0 65.0732 0 0.001415 
55 1 0.152749 0 0.00435019 0.233979 0 -7.0816 -0.000459183 0 -0.00340597 0 65.0807 0 0.001415 
56 1 0.155577 0 0.00445842 0.241024 0 -7.26565 -0.000473687 0 -0.00349197 0 65.0826 0 0.001415 
