ITEM: TIMESTEP
8300000
ITEM: NUMBER OF ATOMS
56
ITEM: BOX BOUNDS ff ff ff
-0.1 0.171215
-0.171215 0.171215
-0.171215 0.171215
ITEM: ATOMS id type x y z vx vy vz fx fy fz omegax omegay omegaz radius 
1 1 3.72833e-16 0 -8.14229e-09 4.49197e-15 0 -9.81e-08 0 0 0 0 0 0 0.001415 
2 1 0.00283 0 -2.52067e-07 -5.05974e-07 0 -0.00353446 -9.05156e-09 0 3.60289e-07 0 2.47752 0 0.001415 
3 1 0.00566 0 -9.89369e-07 -3.42682e-06 0 -0.0139919 -6.85242e-08 0 1.42565e-06 0 4.89264 0 0.001415 
4 1 0.00849 0 -2.2273e-06 -1.11438e-05 0 -0.0311959 -2.25296e-07 0 3.17774e-06 0 7.2454 0 0.001415 
5 1 0.01132 0 -3.97305e-06 -2.5996e-05 0 -0.05497 -5.22365e-07 0 5.59827e-06 0 9.53581 0 0.001415 
6 1 0.01415 0 -6.23373e-06 -5.02765e-05 0 -0.0851377 -9.99182e-07 0 8.669e-06 0 11.7639 0 0.001415 
7 1 0.01698 0 -9.01632e-06 -8.62291e-05 0 -0.121523 -1.69163e-06 0 1.23718e-05 0 13.9297 0 0.001415 
8 1 0.01981 0 -1.23277e-05 -0.000136044 0 -0.163949 -2.63219e-06 0 1.66884e-05 0 16.0333 0 0.001415 
9 1 0.02264 0 -1.61744e-05 -0.000201853 0 -0.21224 -3.84996e-06 0 2.16008e-05 0 18.0747 0 0.001415 
10 1 0.02547 0 -2.0563e-05 -0.000285726 0 -0.266221 -5.37081e-06 0 2.70911e-05 0 20.0541 0 0.001415 
11 1 0.0283 0 -2.54995e-05 -0.000389664 0 -0.325716 -7.21757e-06 0 3.31412e-05 0 21.9716 0 0.001415 
12 1 0.03113 0 -3.09897e-05 -0.000515596 0 -0.39055 -9.40994e-06 0 3.97332e-05 0 23.8273 0 0.001415 
13 1 0.03396 0 -3.7039e-05 -0.000665371 0 -0.460548 -1.19648e-05 0 4.68494e-05 0 25.6214 0 0.001415 
14 1 0.03679 0 -4.36523e-05 -0.000840752 0 -0.535536 -1.48964e-05 0 5.4472e-05 0 27.354 0 0.001415 
15 1 0.03962 0 -5.08339e-05 -0.00104341 0 -0.615341 -1.82158e-05 0 6.25834e-05 0 29.0255 0 0.001415 
16 1 0.04245 0 -5.85876e-05 -0.00127493 0 -0.699789 -2.19323e-05 0 7.1166e-05 0 30.6361 0 0.001415 
17 1 0.0452799 0 -6.69166e-05 -0.00153676 0 -0.78871 -2.60518e-05 0 8.02023e-05 0 32.1861 0 0.001415 
18 1 0.0481099 0 -7.58233e-05 -0.00183029 0 -0.881932 -3.0579e-05 0 8.9675e-05 0 33.6759 0 0.001415 
19 1 0.0509399 0 -8.53094e-05 -0.00215674 0 -0.979285 -3.55154e-05 0 9.95669e-05 0 35.1059 0 0.001415 
20 1 0.0537699 0 -9.53757e-05 -0.00251724 0 -1.0806 -4.08609e-05 0 0.000109861 0 36.4764 0 0.001415 
21 1 0.0565999 0 -0.000106022 -0.00291278 0 -1.18571 -4.66135e-05 0 0.00012054 0 37.788 0 0.001415 
22 1 0.0594299 0 -0.000117248 -0.00334422 0 -1.29445 -5.27691e-05 0 0.000131587 0 39.0413 0 0.001415 
23 1 0.0622598 0 -0.00012905 -0.00381228 0 -1.40665 -5.93223e-05 0 0.000142986 0 40.2367 0 0.001415 
24 1 0.0650898 0 -0.000141427 -0.00431754 0 -1.52216 -6.62659e-05 0 0.00015472 0 41.3749 0 0.001415 
25 1 0.0679198 0 -0.000154374 -0.00486043 0 -1.64081 -7.35909e-05 0 0.000166773 0 42.4566 0 0.001415 
26 1 0.0707497 0 -0.000167885 -0.00544124 0 -1.76243 -8.12877e-05 0 0.000179129 0 43.4826 0 0.001415 
27 1 0.0735797 0 -0.000181955 -0.00606009 0 -1.88689 -8.93451e-05 0 0.000191772 0 44.4535 0 0.001415 
28 1 0.0764097 0 -0.000196576 -0.00671696 0 -2.01401 -9.77509e-05 0 0.000204686 0 45.3703 0 0.001415 
29 1 0.0792396 0 -0.000211739 -0.00741169 0 -2.14365 -0.000106491 0 0.000217856 0 46.2339 0 0.001415 
30 1 0.0820696 0 -0.000227435 -0.00814394 0 -2.27566 -0.000115554 0 0.000231266 0 47.0452 0 0.001415 
31 1 0.0848995 0 -0.000243652 -0.00891325 0 -2.4099 -0.000124922 0 0.000244903 0 47.8052 0 0.001415 
32 1 0.0877295 0 -0.000260378 -0.00971899 0 -2.54621 -0.000134582 0 0.000258751 0 48.5151 0 0.001415 
33 1 0.0905594 0 -0.0002776 -0.0105604 0 -2.68447 -0.000144517 0 0.000272796 0 49.176 0 0.001415 
34 1 0.0933894 0 -0.000295302 -0.0114366 0 -2.82452 -0.000154711 0 0.000287025 0 49.789 0 0.001415 
35 1 0.0962193 0 -0.00031347 -0.0123465 0 -2.96624 -0.000165149 0 0.000301423 0 50.3555 0 0.001415 
36 1 0.0990493 0 -0.000332086 -0.013289 0 -3.1095 -0.000175812 0 0.000315978 0 50.8767 0 0.001415 
37 1 0.101879 0 -0.000351133 -0.0142627 0 -3.25418 -0.000186687 0 0.000330676 0 51.3542 0 0.001415 
38 1 0.104709 0 -0.00037059 -0.0152664 0 -3.40014 -0.000197754 0 0.000345506 0 51.7893 0 0.001415 
39 1 0.107539 0 -0.000390439 -0.0162984 0 -3.54728 -0.000208999 0 0.000360455 0 52.1836 0 0.001415 
40 1 0.110369 0 -0.000410659 -0.0173573 0 -3.69547 -0.000220405 0 0.000375512 0 52.5386 0 0.001415 
41 1 0.113199 0 -0.000431227 -0.0184414 0 -3.84462 -0.000231957 0 0.000390666 0 52.8562 0 0.001415 
42 1 0.116029 0 -0.000452121 -0.0195489 0 -3.99461 -0.000243639 0 0.000405906 0 53.1379 0 0.001415 
43 1 0.118859 0 -0.000473318 -0.020678 0 -4.14535 -0.000255436 0 0.000421222 0 53.3856 0 0.001415 
44 1 0.121689 0 -0.000494793 -0.021827 0 -4.29675 -0.000267336 0 0.000436606 0 53.6011 0 0.001415 
45 1 0.124519 0 -0.000516523 -0.0229939 0 -4.44871 -0.000279324 0 0.000452046 0 53.7865 0 0.001415 
46 1 0.127349 0 -0.000538482 -0.0241768 0 -4.60116 -0.000291387 0 0.000467537 0 53.9437 0 0.001415 
47 1 0.130178 0 -0.000560645 -0.025374 0 -4.75401 -0.000303514 0 0.000483068 0 54.0747 0 0.001415 
48 1 0.133008 0 -0.000582987 -0.0265834 0 -4.9072 -0.000315693 0 0.000498634 0 54.1819 0 0.001415 
49 1 0.135838 0 -0.000605482 -0.0278033 0 -5.06066 -0.000327916 0 0.000514228 0 54.2673 0 0.001415 
50 1 0.138668 0 -0.000628104 -0.0290317 0 -5.21433 -0.000340171 0 0.000529843 0 54.3332 0 0.001415 
51 1 0.141498 0 -0.000650827 -0.030267 0 -5.36817 -0.000352452 0 0.000545475 0 54.3821 0 0.001415 
52 1 0.144328 0 -0.000673627 -0.0315074 0 -5.52212 -0.000364751 0 0.000561119 0 54.4164 0 0.001415 
53 1 0.147158 0 -0.000696478 -0.0327512 0 -5.67615 -0.000377062 0 0.000576771 0 54.4385 0 0.001415 
54 1 0.149988 0 -0.000719356 -0.0339968 0 -5.83023 -0.000389381 0 0.000592428 0 54.451 0 0.001415 
55 1 0.152818 0 -0.000742237 -0.0352428 0 -5.98433 -0.000401703 0 0.000608087 0 54.4566 0 0.001415 
56 1 0.155648 0 -0.00076512 -0.0364889 0 -6.13844 -0.000414028 0 0.000623747 0 54.4581 0 0.001415 
