ITEM: TIMESTEP
300000
ITEM: NUMBER OF ATOMS
56
ITEM: BOX BOUNDS ff ff ff
-0.1 0.171215
-0.171215 0.171215
-0.171215 0.171215
ITEM: ATOMS id type x y z vx vy vz fx fy fz omegax omegay omegaz radius 
1 1 1.34757e-17 0 -2.94295e-10 4.49197e-15 0 -9.81e-08 0 0 0 0 0 0 0.001415 
2 1 0.00283 0 -1.13203e-06 5.75249e-08 0 0.000448892 3.23285e-09 0 -4.21562e-06 0 -0.296986 0 0.001415 
3 1 0.00566 0 -4.46564e-06 1.33457e-06 0 0.00164477 -5.12524e-09 0 -1.5041e-05 0 -0.527845 0 0.001415 
4 1 0.00848999 0 -9.92599e-06 4.58152e-06 0 0.00340048 -3.09045e-08 0 -3.03013e-05 0 -0.692682 0 0.001415 
5 1 0.01132 0 -1.74379e-05 1.00838e-05 0 0.00552949 -7.44582e-08 0 -4.78377e-05 0 -0.79177 0 0.001415 
6 1 0.01415 0 -2.69263e-05 1.76952e-05 0 0.00784634 -1.31126e-07 0 -6.55256e-05 0 -0.825616 0 0.001415 
7 1 0.0169799 0 -3.83159e-05 2.68733e-05 0 0.0101674 -1.9187e-07 0 -8.12977e-05 0 -0.79502 0 0.001415 
8 1 0.0198099 0 -5.15316e-05 3.67179e-05 0 0.0123118 -2.44078e-07 0 -9.3171e-05 0 -0.70112 0 0.001415 
9 1 0.0226399 0 -6.6498e-05 4.60125e-05 0 0.0141023 -2.72442e-07 0 -9.9276e-05 0 -0.545428 0 0.001415 
10 1 0.0254698 0 -8.31398e-05 5.32687e-05 0 0.0153667 -2.59412e-07 0 -9.78875e-05 0 -0.329856 0 0.001415 
11 1 0.0282998 0 -0.000101382 5.67725e-05 0 0.0159385 -1.86629e-07 0 -8.74551e-05 0 -0.0567284 0 0.001415 
12 1 0.0311297 0 -0.000121148 5.46332e-05 0 0.0156587 -3.56421e-08 0 -6.66337e-05 0 0.27121 0 0.001415 
13 1 0.0339596 0 -0.000142364 4.48336e-05 0 0.0143764 2.11464e-07 0 -3.43112e-05 0 0.650802 0 0.001415 
14 1 0.0367895 0 -0.000164953 2.52811e-05 0 0.0119504 5.70617e-07 0 1.03665e-05 0 1.07849 0 0.001415 
15 1 0.0396194 0 -0.000188841 -6.14243e-06 0 0.00824983 1.0551e-06 0 6.79738e-05 0 1.55034 0 0.001415 
16 1 0.0424493 0 -0.000213953 -5.15301e-05 0 0.00315581 1.67541e-06 0 0.000138788 0 2.06207 0 0.001415 
17 1 0.0452792 0 -0.000240213 -0.000112903 0 -0.00343819 2.43719e-06 0 0.000222779 0 2.60909 0 0.001415 
18 1 0.0481091 0 -0.000267548 -0.000192166 0 -0.0116253 3.3425e-06 0 0.0003196 0 3.18656 0 0.001415 
19 1 0.0509389 0 -0.000295885 -0.000291064 0 -0.0214846 4.38785e-06 0 0.000428588 0 3.78943 0 0.001415 
20 1 0.0537688 0 -0.000325149 -0.000411152 0 -0.0330807 5.56516e-06 0 0.000548771 0 4.41249 0 0.001415 
21 1 0.0565986 0 -0.000355269 -0.000553757 0 -0.0464631 6.86064e-06 0 0.000678875 0 5.05043 0 0.001415 
22 1 0.0594284 0 -0.000386175 -0.000719958 0 -0.0616666 8.25643e-06 0 0.000817347 0 5.69794 0 0.001415 
23 1 0.0622583 0 -0.000417796 -0.000910567 0 -0.0787107 9.72909e-06 0 0.000962371 0 6.34973 0 0.001415 
24 1 0.0650881 0 -0.000450066 -0.00112612 0 -0.0976001 1.12513e-05 0 0.0011119 0 7.00062 0 0.001415 
25 1 0.0679179 0 -0.000482917 -0.00136685 0 -0.118325 1.27927e-05 0 0.0012637 0 7.64559 0 0.001415 
26 1 0.0707477 0 -0.000516287 -0.00163274 0 -0.140862 1.43188e-05 0 0.00141537 0 8.27985 0 0.001415 
27 1 0.0735775 0 -0.000550113 -0.00192348 0 -0.165174 1.57939e-05 0 0.00156439 0 8.89891 0 0.001415 
28 1 0.0764073 0 -0.000584337 -0.0022385 0 -0.191213 1.71809e-05 0 0.00170816 0 9.49863 0 0.001415 
29 1 0.0792371 0 -0.000618901 -0.002577 0 -0.218917 1.84424e-05 0 0.00184408 0 10.0752 0 0.001415 
30 1 0.0820669 0 -0.000653753 -0.00293796 0 -0.248217 1.95407e-05 0 0.00196954 0 10.6254 0 0.001415 
31 1 0.0848966 0 -0.000688842 -0.00332017 0 -0.279034 2.0441e-05 0 0.00208202 0 11.1464 0 0.001415 
32 1 0.0877264 0 -0.000724121 -0.00372228 0 -0.311282 2.11094e-05 0 0.00217911 0 11.6357 0 0.001415 
33 1 0.0905562 0 -0.000759548 -0.00414282 0 -0.344867 2.15157e-05 0 0.00225856 0 12.0915 0 0.001415 
34 1 0.093386 0 -0.000795082 -0.00458021 0 -0.379694 2.16335e-05 0 0.00231832 0 12.5126 0 0.001415 
35 1 0.0962158 0 -0.000830688 -0.00503284 0 -0.415663 2.14395e-05 0 0.00235661 0 12.8982 0 0.001415 
36 1 0.0990455 0 -0.000866333 -0.00549907 0 -0.452672 2.0917e-05 0 0.0023719 0 13.2479 0 0.001415 
37 1 0.101875 0 -0.000901989 -0.00597728 0 -0.490621 2.00521e-05 0 0.00236297 0 13.562 0 0.001415 
38 1 0.104705 0 -0.000937633 -0.00646588 0 -0.529409 1.88374e-05 0 0.00232894 0 13.8412 0 0.001415 
39 1 0.107535 0 -0.000973243 -0.00696336 0 -0.568939 1.72702e-05 0 0.00226929 0 14.0866 0 0.001415 
40 1 0.110365 0 -0.0010088 -0.00746828 0 -0.609117 1.53523e-05 0 0.00218384 0 14.2997 0 0.001415 
41 1 0.113194 0 -0.0010443 -0.00797932 0 -0.649854 1.30913e-05 0 0.00207277 0 14.4823 0 0.001415 
42 1 0.116024 0 -0.00107973 -0.00849527 0 -0.691067 1.04986e-05 0 0.00193663 0 14.6365 0 0.001415 
43 1 0.118854 0 -0.00111507 -0.00901505 0 -0.732679 7.5901e-06 0 0.00177629 0 14.7647 0 0.001415 
44 1 0.121684 0 -0.00115034 -0.00953774 0 -0.77462 4.38515e-06 0 0.00159296 0 14.8694 0 0.001415 
45 1 0.124514 0 -0.00118553 -0.0100625 0 -0.816825 9.06297e-07 0 0.00138812 0 14.9531 0 0.001415 
46 1 0.127343 0 -0.00122063 -0.0105887 0 -0.859241 -2.82189e-06 0 0.00116354 0 15.0185 0 0.001415 
47 1 0.130173 0 -0.00125566 -0.0111158 0 -0.901819 -6.77087e-06 0 0.000921154 0 15.0682 0 0.001415 
48 1 0.133003 0 -0.00129063 -0.0116433 0 -0.944518 -1.09139e-05 0 0.000663092 0 15.1048 0 0.001415 
49 1 0.135833 0 -0.00132553 -0.0121711 0 -0.987304 -1.52213e-05 0 0.000391575 0 15.1306 0 0.001415 
50 1 0.138662 0 -0.00136039 -0.0126988 0 -1.03015 -1.96644e-05 0 0.00010887 0 15.148 0 0.001415 
51 1 0.141492 0 -0.0013952 -0.0132263 0 -1.07304 -2.42156e-05 0 -0.000182779 0 15.159 0 0.001415 
52 1 0.144322 0 -0.00142997 -0.0137536 0 -1.11594 -2.88478e-05 0 -0.000481222 0 15.1654 0 0.001415 
53 1 0.147152 0 -0.00146473 -0.0142808 0 -1.15887 -3.3537e-05 0 -0.000784473 0 15.1686 0 0.001415 
54 1 0.149982 0 -0.00149947 -0.0148077 0 -1.20179 -3.82635e-05 0 -0.00109079 0 15.17 0 0.001415 
55 1 0.152811 0 -0.0015342 -0.0153346 0 -1.24472 -4.30085e-05 0 -0.00139874 0 15.1703 0 0.001415 
56 1 0.155641 0 -0.00156893 -0.0158615 0 -1.28765 -4.77619e-05 0 -0.00170729 0 15.1704 0 0.001415 
