ITEM: TIMESTEP
12300000
ITEM: NUMBER OF ATOMS
56
ITEM: BOX BOUNDS ff ff ff
-0.1 0.171215
-0.171215 0.171215
-0.171215 0.171215
ITEM: ATOMS id type x y z vx vy vz fx fy fz omegax omegay omegaz radius 
1 1 5.52512e-16 0 -1.20663e-08 4.49197e-15 0 -9.81e-08 0 0 0 0 0 0 0.001415 
2 1 0.00283 0 3.41043e-06 -1.99515e-06 0 0.0011973 3.38102e-09 0 -2.65477e-06 0 -0.839474 0 0.001415 
3 1 0.00565998 0 1.3521e-05 -1.51844e-05 0 0.0047407 2.57537e-08 0 -1.05102e-05 0 -1.65796 0 0.001415 
4 1 0.00848993 0 3.01294e-05 -4.99124e-05 0 0.0105707 8.46407e-08 0 -2.34342e-05 0 -2.45547 0 0.001415 
5 1 0.0113198 0 5.30457e-05 -0.000115654 0 0.0186277 1.96095e-07 0 -4.1295e-05 0 -3.23197 0 0.001415 
6 1 0.0141497 0 8.20797e-05 -0.000221038 0 0.0288522 3.7462e-07 0 -6.39605e-05 0 -3.98749 0 0.001415 
7 1 0.0169795 0 0.000117042 -0.000373872 0 0.0411848 6.33458e-07 0 -9.12986e-05 0 -4.72201 0 0.001415 
8 1 0.0198092 0 0.000157742 -0.000581168 0 0.0555658 9.8426e-07 0 -0.000123178 0 -5.43556 0 0.001415 
9 1 0.0226388 0 0.000203991 -0.000849166 0 0.0719357 1.43754e-06 0 -0.000159465 0 -6.12813 0 0.001415 
10 1 0.0254683 0 0.000255601 -0.00118336 0 0.0902352 2.00262e-06 0 -0.00020003 0 -6.79977 0 0.001415 
11 1 0.0282978 0 0.000312382 -0.00158854 0 0.110405 2.68713e-06 0 -0.000244741 0 -7.4505 0 0.001415 
12 1 0.0311271 0 0.000374149 -0.00206878 0 0.132385 3.49812e-06 0 -0.000293467 0 -8.08037 0 0.001415 
13 1 0.0339563 0 0.000440713 -0.00262752 0 0.156117 4.44101e-06 0 -0.000346075 0 -8.68941 0 0.001415 
14 1 0.0367854 0 0.000511889 -0.00326755 0 0.181542 5.52041e-06 0 -0.000402437 0 -9.2777 0 0.001415 
15 1 0.0396144 0 0.000587493 -0.00399105 0 0.208601 6.74002e-06 0 -0.000462422 0 -9.84532 0 0.001415 
16 1 0.0424433 0 0.000667342 -0.00479964 0 0.237235 8.10193e-06 0 -0.0005259 0 -10.3923 0 0.001415 
17 1 0.045272 0 0.000751254 -0.00569438 0 0.267387 9.60811e-06 0 -0.000592742 0 -10.9188 0 0.001415 
18 1 0.0481007 0 0.000839049 -0.00667583 0 0.298997 1.12593e-05 0 -0.00066282 0 -11.425 0 0.001415 
19 1 0.0509292 0 0.000930549 -0.00774406 0 0.332009 1.30552e-05 0 -0.000736007 0 -11.9109 0 0.001415 
20 1 0.0537576 0 0.00102558 -0.00889867 0 0.366366 1.49949e-05 0 -0.000812175 0 -12.3766 0 0.001415 
21 1 0.0565859 0 0.00112396 -0.0101389 0 0.40201 1.70773e-05 0 -0.000891199 0 -12.8224 0 0.001415 
22 1 0.0594141 0 0.00122553 -0.0114635 0 0.438885 1.92996e-05 0 -0.000972955 0 -13.2484 0 0.001415 
23 1 0.0622421 0 0.00133011 -0.0128709 0 0.476936 2.16594e-05 0 -0.00105732 0 -13.6549 0 0.001415 
24 1 0.0650701 0 0.00143754 -0.0143592 0 0.516108 2.41532e-05 0 -0.00114417 0 -14.0419 0 0.001415 
25 1 0.0678979 0 0.00154766 -0.0159264 0 0.556345 2.67768e-05 0 -0.00123338 0 -14.4098 0 0.001415 
26 1 0.0707257 0 0.00166031 -0.0175698 0 0.597594 2.95268e-05 0 -0.00132484 0 -14.7587 0 0.001415 
27 1 0.0735534 0 0.00177532 -0.0192868 0 0.639802 3.23976e-05 0 -0.00141843 0 -15.089 0 0.001415 
28 1 0.0763809 0 0.00189255 -0.0210746 0 0.682917 3.53848e-05 0 -0.00151403 0 -15.4009 0 0.001415 
29 1 0.0792084 0 0.00201185 -0.0229301 0 0.726886 3.84824e-05 0 -0.00161152 0 -15.6948 0 0.001415 
30 1 0.0820358 0 0.00213308 -0.0248499 0 0.77166 4.1686e-05 0 -0.00171081 0 -15.9709 0 0.001415 
31 1 0.0848631 0 0.00225608 -0.0268309 0 0.817188 4.4989e-05 0 -0.00181176 0 -16.2296 0 0.001415 
32 1 0.0876904 0 0.00238073 -0.0288696 0 0.863423 4.83856e-05 0 -0.00191429 0 -16.4713 0 0.001415 
33 1 0.0905176 0 0.0025069 -0.0309624 0 0.910316 5.18705e-05 0 -0.00201827 0 -16.6963 0 0.001415 
34 1 0.0933447 0 0.00263445 -0.0331059 0 0.95782 5.54368e-05 0 -0.00212362 0 -16.905 0 0.001415 
35 1 0.0961718 0 0.00276326 -0.0352964 0 1.00589 5.90796e-05 0 -0.00223022 0 -17.0979 0 0.001415 
36 1 0.0989988 0 0.00289322 -0.0375305 0 1.05449 6.27919e-05 0 -0.00233798 0 -17.2755 0 0.001415 
37 1 0.101826 0 0.00302422 -0.0398046 0 1.10356 6.65686e-05 0 -0.00244681 0 -17.4381 0 0.001415 
38 1 0.104653 0 0.00315613 -0.0421152 0 1.15307 7.04036e-05 0 -0.00255661 0 -17.5863 0 0.001415 
39 1 0.10748 0 0.00328888 -0.044459 0 1.20298 7.42911e-05 0 -0.0026673 0 -17.7207 0 0.001415 
40 1 0.110306 0 0.00342234 -0.0468327 0 1.25325 7.82262e-05 0 -0.00277878 0 -17.8417 0 0.001415 
41 1 0.113133 0 0.00355645 -0.049233 0 1.30385 8.22029e-05 0 -0.00289099 0 -17.9499 0 0.001415 
42 1 0.11596 0 0.0036911 -0.0516569 0 1.35473 8.62169e-05 0 -0.00300383 0 -18.046 0 0.001415 
43 1 0.118787 0 0.00382623 -0.0541015 0 1.40587 9.02628e-05 0 -0.00311724 0 -18.1304 0 0.001415 
44 1 0.121614 0 0.00396176 -0.056564 0 1.45722 9.43368e-05 0 -0.00323114 0 -18.2039 0 0.001415 
45 1 0.12444 0 0.00409762 -0.0590418 0 1.50878 9.84339e-05 0 -0.00334547 0 -18.2671 0 0.001415 
46 1 0.127267 0 0.00423375 -0.0615325 0 1.56049 0.000102551 0 -0.00346017 0 -18.3207 0 0.001415 
47 1 0.130094 0 0.00437009 -0.0640338 0 1.61235 0.000106684 0 -0.00357517 0 -18.3654 0 0.001415 
48 1 0.13292 0 0.00450661 -0.0665437 0 1.66432 0.00011083 0 -0.00369043 0 -18.402 0 0.001415 
49 1 0.135747 0 0.00464325 -0.0690605 0 1.71638 0.000114986 0 -0.00380589 0 -18.4311 0 0.001415 
50 1 0.138574 0 0.00477999 -0.0715824 0 1.76851 0.000119149 0 -0.00392152 0 -18.4536 0 0.001415 
51 1 0.141401 0 0.00491679 -0.0741083 0 1.8207 0.000123318 0 -0.00403726 0 -18.4703 0 0.001415 
52 1 0.144227 0 0.00505364 -0.0766368 0 1.87293 0.000127491 0 -0.0041531 0 -18.482 0 0.001415 
53 1 0.147054 0 0.00519052 -0.0791673 0 1.92518 0.000131667 0 -0.00426899 0 -18.4896 0 0.001415 
54 1 0.149881 0 0.00532742 -0.0816989 0 1.97745 0.000135845 0 -0.00438492 0 -18.4939 0 0.001415 
55 1 0.152707 0 0.00546434 -0.0842313 0 2.02973 0.000140023 0 -0.00450087 0 -18.4958 0 0.001415 
56 1 0.155534 0 0.00560127 -0.0867639 0 2.08202 0.000144203 0 -0.00461682 0 -18.4963 0 0.001415 
