ITEM: TIMESTEP
11100000
ITEM: NUMBER OF ATOMS
56
ITEM: BOX BOUNDS ff ff ff
-0.1 0.171215
-0.171215 0.171215
-0.171215 0.171215
ITEM: ATOMS id type x y z vx vy vz fx fy fz omegax omegay omegaz radius 
50 1 0.138519 0 -0.00593861 0.0384323 0 0.756236 0.000227973 0 0.00462839 0 -7.89391 0 0.001415 
51 1 0.141343 0 -0.00611804 0.0398494 0 0.778542 0.000236384 0 0.00476492 0 -7.90102 0 0.001415 
52 1 0.144167 0 -0.00629767 0.0412692 0 0.800865 0.000244811 0 0.00490155 0 -7.90601 0 0.001415 
53 1 0.146991 0 -0.00647743 0.0426907 0 0.823199 0.000253249 0 0.00503824 0 -7.90923 0 0.001415 
54 1 0.149816 0 -0.00665726 0.0441133 0 0.84554 0.000261692 0 0.00517499 0 -7.91105 0 0.001415 
55 1 0.15264 0 -0.00683713 0.0455363 0 0.867884 0.000270139 0 0.00531175 0 -7.91187 0 0.001415 
56 1 0.155464 0 -0.007017 0.0469595 0 0.89023 0.000278586 0 0.00544852 0 -7.91208 0 0.001415 
39 1 0.107449 0 -0.0040028 0.0233679 0 0.514503 0.000138571 0 0.00314884 0 -7.58093 0 0.001415 
40 1 0.110274 0 -0.00417398 0.0246702 0 0.535994 0.000146298 0 0.00328038 0 -7.63262 0 0.001415 
41 1 0.113098 0 -0.00434647 0.025991 0 0.557621 0.000154136 0 0.00341275 0 -7.67885 0 0.001415 
42 1 0.115923 0 -0.00452015 0.0273284 0 0.579372 0.000162072 0 0.00354588 0 -7.71987 0 0.001415 
43 1 0.118748 0 -0.0046949 0.0286808 0 0.601231 0.000170098 0 0.00367967 0 -7.75593 0 0.001415 
44 1 0.121572 0 -0.00487059 0.0300464 0 0.623184 0.000178202 0 0.00381404 0 -7.78732 0 0.001415 
45 1 0.124397 0 -0.00504712 0.0314237 0 0.645219 0.000186375 0 0.00394891 0 -7.8143 0 0.001415 
46 1 0.127221 0 -0.00522437 0.032811 0 0.667325 0.000194609 0 0.0040842 0 -7.83719 0 0.001415 
47 1 0.130045 0 -0.00540224 0.0342068 0 0.689489 0.000202893 0 0.00421986 0 -7.85627 0 0.001415 
48 1 0.13287 0 -0.00558063 0.0356098 0 0.711701 0.00021122 0 0.00435581 0 -7.87187 0 0.001415 
49 1 0.135694 0 -0.00575945 0.0370187 0 0.733953 0.000219582 0 0.00449201 0 -7.8843 0 0.001415 
26 1 0.0707156 0 -0.00196235 0.00894459 0 0.255646 5.30148e-05 0 0.00156451 0 -6.31461 0 0.001415 
27 1 0.0735421 0 -0.00210317 0.00984403 0 0.273698 5.83482e-05 0 0.001675 0 -6.45587 0 0.001415 
28 1 0.0763684 0 -0.00224726 0.0107842 0 0.292136 6.39233e-05 0 0.00178785 0 -6.58927 0 0.001415 
29 1 0.0791946 0 -0.00239445 0.0117636 0 0.31094 6.97319e-05 0 0.00190293 0 -6.71493 0 0.001415 
30 1 0.0820206 0 -0.0025446 0.012781 0 0.330087 7.57661e-05 0 0.00202012 0 -6.833 0 0.001415 
31 1 0.0848465 0 -0.00269753 0.0138348 0 0.349556 8.20155e-05 0 0.00213928 0 -6.94361 0 0.001415 
32 1 0.0876722 0 -0.0028531 0.0149233 0 0.369326 8.84719e-05 0 0.00226028 0 -7.04692 0 0.001415 
33 1 0.0904978 0 -0.00301113 0.0160448 0 0.389377 9.51247e-05 0 0.002383 0 -7.14311 0 0.001415 
34 1 0.0933232 0 -0.00317148 0.0171976 0 0.409689 0.000101963 0 0.00250732 0 -7.23234 0 0.001415 
35 1 0.0961486 0 -0.003334 0.01838 0 0.430242 0.000108977 0 0.00263312 0 -7.3148 0 0.001415 
36 1 0.0989738 0 -0.00349854 0.0195901 0 0.451018 0.000116156 0 0.00276028 0 -7.39068 0 0.001415 
37 1 0.101799 0 -0.00366495 0.020826 0 0.471999 0.000123489 0 0.00288869 0 -7.46019 0 0.001415 
38 1 0.104624 0 -0.00383308 0.0220859 0 0.493166 0.000130964 0 0.00301825 0 -7.52353 0 0.001415 
1 1 4.98608e-16 0 -1.08891e-08 4.49197e-15 0 -9.81e-08 0 0 0 0 0 0 0.001415 
2 1 0.00283 0 -3.85093e-06 9.73642e-07 0 0.000512371 5.78512e-09 0 3.13512e-06 0 -0.359172 0 0.001415 
3 1 0.00565997 0 -1.52295e-05 7.33956e-06 0 0.00202859 4.34683e-08 0 1.24124e-05 0 -0.709373 0 0.001415 
4 1 0.00848991 0 -3.39751e-05 2.41246e-05 0 0.00452315 1.42889e-07 0 2.76763e-05 0 -1.0506 0 0.001415 
5 1 0.0113198 0 -5.99158e-05 5.59791e-05 0 0.00797058 3.31537e-07 0 4.87712e-05 0 -1.38285 0 0.001415 
6 1 0.0141496 0 -9.288e-05 0.000107186 0 0.0123454 6.34835e-07 0 7.55414e-05 0 -1.70612 0 0.001415 
7 1 0.0169793 0 -0.000132696 0.00018167 0 0.0176222 1.07591e-06 0 0.000107831 0 -2.02041 0 0.001415 
8 1 0.0198089 0 -0.000179191 0.000283006 0 0.0237754 1.6762e-06 0 0.000145484 0 -2.32573 0 0.001415 
9 1 0.0226384 0 -0.000232193 0.000414431 0 0.0307796 2.45465e-06 0 0.000188345 0 -2.62208 0 0.001415 
10 1 0.0254678 0 -0.000291531 0.00057885 0 0.0386092 3.4286e-06 0 0.000236258 0 -2.90947 0 0.001415 
11 1 0.0282971 0 -0.000357033 0.000778849 0 0.0472389 4.61344e-06 0 0.000289067 0 -3.18791 0 0.001415 
12 1 0.0311262 0 -0.000428525 0.0010167 0 0.0566433 6.02251e-06 0 0.000346617 0 -3.45743 0 0.001415 
13 1 0.0339551 0 -0.000505836 0.00129438 0 0.066797 7.66763e-06 0 0.000408753 0 -3.71803 0 0.001415 
14 1 0.0367839 0 -0.000588794 0.00161357 0 0.0776747 9.55895e-06 0 0.000475321 0 -3.96975 0 0.001415 
15 1 0.0396125 0 -0.000677227 0.00197568 0 0.0892513 1.17045e-05 0 0.000546166 0 -4.21262 0 0.001415 
16 1 0.0424409 0 -0.000770962 0.00238183 0 0.101502 1.41113e-05 0 0.000621135 0 -4.44667 0 0.001415 
17 1 0.0452692 0 -0.000869829 0.00283291 0 0.114401 1.67844e-05 0 0.000700075 0 -4.67194 0 0.001415 
18 1 0.0480973 0 -0.000973655 0.00332954 0 0.127924 1.97276e-05 0 0.000782835 0 -4.88849 0 0.001415 
19 1 0.0509252 0 -0.00108227 0.00387211 0 0.142046 2.29434e-05 0 0.000869262 0 -5.09637 0 0.001415 
20 1 0.053753 0 -0.0011955 0.00446077 0 0.156743 2.64325e-05 0 0.000959208 0 -5.29563 0 0.001415 
21 1 0.0565805 0 -0.00131318 0.0050955 0 0.17199 3.01947e-05 0 0.00105252 0 -5.48635 0 0.001415 
22 1 0.0594079 0 -0.00143514 0.00577602 0 0.187764 3.42289e-05 0 0.00114906 0 -5.66859 0 0.001415 
23 1 0.0622351 0 -0.0015612 0.00650189 0 0.20404 3.85322e-05 0 0.00124867 0 -5.84245 0 0.001415 
24 1 0.0650621 0 -0.0016912 0.0072725 0 0.220794 4.31005e-05 0 0.00135121 0 -6.00801 0 0.001415 
25 1 0.0678889 0 -0.00182498 0.00808705 0 0.238004 4.79304e-05 0 0.00145654 0 -6.16536 0 0.001415 
