ITEM: TIMESTEP
5000000
ITEM: NUMBER OF ATOMS
56
ITEM: BOX BOUNDS ff ff ff
-0.1 0.171215
-0.171215 0.171215
-0.171215 0.171215
ITEM: ATOMS id type x y z vx vy vz fx fy fz omegax omegay omegaz radius 
51 1 0.141224 0 -0.00811035 -0.234669 0 -3.46887 0.000288759 0 0.00644011 0 34.789 0 0.001415 
52 1 0.144044 0 -0.0083471 -0.242908 0 -3.56701 0.000299244 0 0.00662577 0 34.8078 0 0.001415 
53 1 0.146864 0 -0.00858401 -0.251157 0 -3.66519 0.000309744 0 0.00681153 0 34.8199 0 0.001415 
54 1 0.149684 0 -0.00882102 -0.25941 0 -3.76339 0.000320252 0 0.00699735 0 34.8267 0 0.001415 
55 1 0.152505 0 -0.00905806 -0.267666 0 -3.86161 0.000330764 0 0.0071832 0 34.8297 0 0.001415 
56 1 0.155325 0 -0.00929512 -0.275923 0 -3.95984 0.000341276 0 0.00736906 0 34.8305 0 0.001415 
42 1 0.115842 0 -0.00600277 -0.161876 0 -2.59226 0.000196492 0 0.0047844 0 34.0866 0 0.001415 
43 1 0.118662 0 -0.00623345 -0.169757 0 -2.68861 0.00020643 0 0.004966 0 34.2284 0 0.001415 
44 1 0.121483 0 -0.00646532 -0.177709 0 -2.78533 0.000216473 0 0.00514842 0 34.3511 0 0.001415 
45 1 0.124303 0 -0.00669824 -0.185723 0 -2.88237 0.000226611 0 0.00533156 0 34.4562 0 0.001415 
46 1 0.127123 0 -0.00693206 -0.193791 0 -2.97968 0.000236831 0 0.00551531 0 34.5448 0 0.001415 
47 1 0.129944 0 -0.00716664 -0.201904 0 -3.07722 0.00024712 0 0.00569957 0 34.6183 0 0.001415 
48 1 0.132764 0 -0.00740188 -0.210055 0 -3.17494 0.000257467 0 0.00588426 0 34.6782 0 0.001415 
49 1 0.135584 0 -0.00763764 -0.218237 0 -3.27281 0.000267863 0 0.0060693 0 34.7256 0 0.001415 
50 1 0.138404 0 -0.00787383 -0.226444 0 -3.3708 0.000278296 0 0.0062546 0 34.7621 0 0.001415 
33 1 0.0904499 0 -0.00400757 -0.0958063 0 -1.7519 0.000114085 0 0.00320813 0 31.755 0 0.001415 
34 1 0.093272 0 -0.0042199 -0.102589 0 -1.84205 0.000122452 0 0.00337641 0 32.1218 0 0.001415 
35 1 0.0960938 0 -0.00443501 -0.109537 0 -1.93318 0.000131047 0 0.00354676 0 32.4591 0 0.001415 
36 1 0.0989154 0 -0.00465271 -0.116638 0 -2.02522 0.000139859 0 0.00371902 0 32.7679 0 0.001415 
37 1 0.101737 0 -0.0048728 -0.123883 0 -2.11808 0.000148872 0 0.00389303 0 33.0494 0 0.001415 
38 1 0.104558 0 -0.0050951 -0.131259 0 -2.21169 0.000158075 0 0.00406865 0 33.3047 0 0.001415 
39 1 0.107379 0 -0.00531942 -0.138757 0 -2.30598 0.000167452 0 0.00424573 0 33.5348 0 0.001415 
40 1 0.1102 0 -0.00554559 -0.146366 0 -2.40088 0.000176989 0 0.00442414 0 33.7411 0 0.001415 
41 1 0.113021 0 -0.00577343 -0.154076 0 -2.49633 0.000186674 0 0.00460374 0 33.9246 0 0.001415 
23 1 0.0622157 0 -0.0020834 -0.0392368 0 -0.924649 4.55328e-05 0 0.0016762 0 26.2553 0 0.001415 
24 1 0.0650404 0 -0.00225627 -0.0438391 0 -0.999837 5.10113e-05 0 0.00181438 0 26.968 0 0.001415 
25 1 0.0678648 0 -0.00243408 -0.0486961 0 -1.07698 5.68146e-05 0 0.00195639 0 27.6425 0 0.001415 
26 1 0.0706889 0 -0.0026166 -0.0538014 0 -1.15596 6.29387e-05 0 0.00210204 0 28.2794 0 0.001415 
27 1 0.0735127 0 -0.00280361 -0.0591477 0 -1.23668 6.93756e-05 0 0.00225113 0 28.8796 0 0.001415 
28 1 0.0763363 0 -0.00299488 -0.0647272 0 -1.31903 7.61185e-05 0 0.0024035 0 29.4438 0 0.001415 
29 1 0.0791595 0 -0.00319019 -0.0705313 0 -1.40292 8.31582e-05 0 0.00255895 0 29.9728 0 0.001415 
30 1 0.0819825 0 -0.00338933 -0.0765511 0 -1.48825 9.04858e-05 0 0.00271732 0 30.4675 0 0.001415 
31 1 0.0848052 0 -0.00359208 -0.0827768 0 -1.57492 9.80901e-05 0 0.00287842 0 30.9288 0 0.001415 
32 1 0.0876277 0 -0.00379823 -0.0891986 0 -1.66283 0.000105961 0 0.00304208 0 31.3577 0 0.001415 
1 1 2.24598e-16 0 -4.90499e-09 4.49197e-15 0 -9.81e-08 0 0 0 0 0 0 0.001415 
2 1 0.00282999 0 -5.157e-06 -5.93964e-06 0 -0.00235558 6.81267e-09 0 4.18554e-06 0 1.65047 0 0.001415 
3 1 0.00565995 0 -2.04176e-05 -4.50898e-05 0 -0.00931951 5.02441e-08 0 1.65743e-05 0 3.25692 0 0.001415 
4 1 0.00848984 0 -4.55498e-05 -0.000148299 0 -0.0207671 1.64639e-07 0 3.69641e-05 0 4.81934 0 0.001415 
5 1 0.0113196 0 -8.03166e-05 -0.000343985 0 -0.0365732 3.81888e-07 0 6.51525e-05 0 6.33769 0 0.001415 
6 1 0.0141493 0 -0.000124481 -0.000658194 0 -0.0566126 7.31727e-07 0 0.000100937 0 7.81198 0 0.001415 
7 1 0.0169788 0 -0.000177805 -0.00111467 0 -0.08076 1.24152e-06 0 0.000144116 0 9.2422 0 0.001415 
8 1 0.0198081 0 -0.000240052 -0.00173489 0 -0.10889 1.93632e-06 0 0.000194486 0 10.6284 0 0.001415 
9 1 0.0226372 0 -0.000310983 -0.00253819 0 -0.140878 2.83937e-06 0 0.000251845 0 11.9707 0 0.001415 
10 1 0.0254661 0 -0.000390363 -0.00354176 0 -0.176598 3.97141e-06 0 0.000315992 0 13.269 0 0.001415 
11 1 0.0282947 0 -0.000477953 -0.00476077 0 -0.215925 5.35144e-06 0 0.000386723 0 14.5236 0 0.001415 
12 1 0.0311231 0 -0.000573516 -0.00620839 0 -0.258736 6.99611e-06 0 0.000463839 0 15.7346 0 0.001415 
13 1 0.0339512 0 -0.000676815 -0.00789591 0 -0.304906 8.9206e-06 0 0.000547135 0 16.9021 0 0.001415 
14 1 0.0367791 0 -0.000787613 -0.00983278 0 -0.354312 1.11377e-05 0 0.000636413 0 18.0265 0 0.001415 
15 1 0.0396066 0 -0.000905674 -0.0120267 0 -0.406831 1.36585e-05 0 0.000731471 0 19.1078 0 0.001415 
16 1 0.0424338 0 -0.00103076 -0.0144837 0 -0.462341 1.64928e-05 0 0.00083211 0 20.1465 0 0.001415 
17 1 0.0452608 0 -0.00116264 -0.0172081 0 -0.520721 1.96476e-05 0 0.000938129 0 21.1428 0 0.001415 
18 1 0.0480874 0 -0.00130107 -0.0202029 0 -0.581851 2.31291e-05 0 0.00104933 0 22.0972 0 0.001415 
19 1 0.0509137 0 -0.00144583 -0.0234695 0 -0.645613 2.69417e-05 0 0.00116552 0 23.01 0 0.001415 
20 1 0.0537396 0 -0.00159667 -0.027008 0 -0.711889 3.10879e-05 0 0.00128649 0 23.8817 0 0.001415 
21 1 0.0565653 0 -0.00175336 -0.0308172 0 -0.780563 3.5569e-05 0 0.00141206 0 24.7128 0 0.001415 
22 1 0.0593906 0 -0.00191568 -0.0348946 0 -0.851521 4.03845e-05 0 0.00154202 0 25.5038 0 0.001415 
