ITEM: TIMESTEP
14600000
ITEM: NUMBER OF ATOMS
56
ITEM: BOX BOUNDS ff ff ff
-0.1 0.171215
-0.171215 0.171215
-0.171215 0.171215
ITEM: ATOMS id type x y z vx vy vz fx fy fz omegax omegay omegaz radius 
51 1 0.141435 0 -0.00392009 0.0744101 0 2.26522 3.48499e-05 0 0.00299152 0 -22.9613 0 0.001415 
52 1 0.144263 0 -0.0040367 0.0770886 0 2.33017 3.61706e-05 0 0.0030773 0 -22.9757 0 0.001415 
53 1 0.14709 0 -0.00415341 0.0797707 0 2.39515 3.74934e-05 0 0.00316312 0 -22.9851 0 0.001415 
54 1 0.149918 0 -0.00427017 0.0824549 0 2.46015 3.88186e-05 0 0.00324897 0 -22.9903 0 0.001415 
55 1 0.152746 0 -0.00438695 0.0851399 0 2.52517 4.01431e-05 0 0.00333483 0 -22.9927 0 0.001415 
56 1 0.155573 0 -0.00450374 0.0878252 0 2.59018 4.14685e-05 0 0.0034207 0 -22.9933 0 0.001415 
34 1 0.0933629 0 -0.00201484 0.031839 0 1.19204 1.42478e-05 0 0.00157419 0 -21.0226 0 0.001415 
35 1 0.096191 0 -0.00211934 0.0340488 0 1.25184 1.52875e-05 0 0.00165317 0 -21.2618 0 0.001415 
36 1 0.099019 0 -0.00222522 0.0363122 0 1.31229 1.63573e-05 0 0.001733 0 -21.4819 0 0.001415 
37 1 0.101847 0 -0.0023324 0.0386259 0 1.37333 1.74551e-05 0 0.00181361 0 -21.6834 0 0.001415 
38 1 0.104675 0 -0.00244077 0.0409863 0 1.43492 1.85795e-05 0 0.00189495 0 -21.8671 0 0.001415 
39 1 0.107503 0 -0.00255026 0.04339 0 1.497 1.97294e-05 0 0.00197693 0 -22.0335 0 0.001415 
40 1 0.110331 0 -0.00266076 0.0458335 0 1.55953 2.0902e-05 0 0.00205951 0 -22.1834 0 0.001415 
41 1 0.113158 0 -0.0027722 0.0483133 0 1.62245 2.20966e-05 0 0.00214262 0 -22.3174 0 0.001415 
42 1 0.115986 0 -0.00288448 0.0508262 0 1.68574 2.33109e-05 0 0.00222619 0 -22.4363 0 0.001415 
43 1 0.118814 0 -0.00299751 0.0533686 0 1.74933 2.45433e-05 0 0.00231019 0 -22.5409 0 0.001415 
44 1 0.121642 0 -0.00311123 0.0559374 0 1.81321 2.5792e-05 0 0.00239455 0 -22.6318 0 0.001415 
45 1 0.124469 0 -0.00322555 0.0585295 0 1.87732 2.70555e-05 0 0.00247922 0 -22.71 0 0.001415 
46 1 0.127297 0 -0.0033404 0.0611417 0 1.94164 2.83315e-05 0 0.00256416 0 -22.7763 0 0.001415 
47 1 0.130125 0 -0.00345569 0.0637713 0 2.00612 2.96188e-05 0 0.00264933 0 -22.8316 0 0.001415 
48 1 0.132952 0 -0.00357138 0.0664154 0 2.07075 3.09164e-05 0 0.00273468 0 -22.8768 0 0.001415 
49 1 0.13578 0 -0.00368738 0.0690714 0 2.13549 3.22214e-05 0 0.00282019 0 -22.9129 0 0.001415 
50 1 0.138608 0 -0.00380364 0.0717371 0 2.20032 3.35328e-05 0 0.00290581 0 -22.9407 0 0.001415 
1 1 6.55827e-16 0 -1.43226e-08 4.49197e-15 0 -9.81e-08 0 0 0 0 0 0 0.001415 
2 1 0.00283 0 -2.40724e-06 1.77537e-06 0 0.00149138 7.19937e-10 0 1.97021e-06 0 -1.04547 0 0.001415 
3 1 0.00565999 0 -9.50393e-06 1.33402e-05 0 0.00590441 5.34758e-09 0 7.79968e-06 0 -2.06471 0 0.001415 
4 1 0.00848997 0 -2.12048e-05 4.38417e-05 0 0.0131647 1.75729e-08 0 1.73899e-05 0 -3.0577 0 0.001415 
5 1 0.0113199 0 -3.74103e-05 0.000101764 0 0.0231979 4.08967e-08 0 3.06425e-05 0 -4.02446 0 0.001415 
6 1 0.0141498 0 -5.80205e-05 0.000194943 0 0.0359298 7.85863e-08 0 4.74589e-05 0 -4.96499 0 0.001415 
7 1 0.0169797 0 -8.29357e-05 0.000330582 0 0.051286 1.33739e-07 0 6.77409e-05 0 -5.87929 0 0.001415 
8 1 0.0198096 0 -0.000112056 0.000515269 0 0.0691922 2.09197e-07 0 9.13902e-05 0 -6.76738 0 0.001415 
9 1 0.0226394 0 -0.000145281 0.000754989 0 0.0895742 3.07623e-07 0 0.000118309 0 -7.62928 0 0.001415 
10 1 0.0254691 0 -0.000182512 0.00105514 0 0.112358 4.31463e-07 0 0.000148398 0 -8.46504 0 0.001415 
11 1 0.0282988 0 -0.000223647 0.00142057 0 0.137469 5.83142e-07 0 0.000181561 0 -9.27468 0 0.001415 
12 1 0.0311285 0 -0.000268586 0.00185554 0 0.164834 7.64491e-07 0 0.000217699 0 -10.0583 0 0.001415 
13 1 0.0339581 0 -0.000317229 0.00236379 0 0.194378 9.7769e-07 0 0.000256715 0 -10.8159 0 0.001415 
14 1 0.0367876 0 -0.000369475 0.00294857 0 0.226029 1.22413e-06 0 0.000298513 0 -11.5476 0 0.001415 
15 1 0.039617 0 -0.000425223 0.00361257 0 0.259713 1.50573e-06 0 0.000342994 0 -12.2535 0 0.001415 
16 1 0.0424464 0 -0.000484373 0.00435805 0 0.295357 1.82344e-06 0 0.000390064 0 -12.9337 0 0.001415 
17 1 0.0452757 0 -0.000546822 0.00518676 0 0.332888 2.17854e-06 0 0.000439626 0 -13.5883 0 0.001415 
18 1 0.048105 0 -0.000612469 0.00610003 0 0.372235 2.57224e-06 0 0.000491584 0 -14.2175 0 0.001415 
19 1 0.0509341 0 -0.000681214 0.00709874 0 0.413324 3.00495e-06 0 0.000545845 0 -14.8215 0 0.001415 
20 1 0.0537632 0 -0.000752953 0.00818337 0 0.456086 3.47756e-06 0 0.000602313 0 -15.4003 0 0.001415 
21 1 0.0565922 0 -0.000827586 0.009354 0 0.500449 3.99049e-06 0 0.000660896 0 -15.9543 0 0.001415 
22 1 0.0594212 0 -0.000905011 0.0106103 0 0.546343 4.54397e-06 0 0.0007215 0 -16.4836 0 0.001415 
23 1 0.06225 0 -0.000985125 0.0119517 0 0.593698 5.13811e-06 0 0.000784035 0 -16.9885 0 0.001415 
24 1 0.0650788 0 -0.00106783 0.0133771 0 0.642446 5.77302e-06 0 0.000848408 0 -17.4692 0 0.001415 
25 1 0.0679076 0 -0.00115301 0.0148853 0 0.692519 6.44848e-06 0 0.000914532 0 -17.9261 0 0.001415 
26 1 0.0707362 0 -0.00124059 0.0164747 0 0.743849 7.16383e-06 0 0.000982316 0 -18.3594 0 0.001415 
27 1 0.0735648 0 -0.00133044 0.0181433 0 0.79637 7.91919e-06 0 0.00105167 0 -18.7695 0 0.001415 
28 1 0.0763933 0 -0.00142247 0.0198891 0 0.850018 8.71347e-06 0 0.00112252 0 -19.1567 0 0.001415 
29 1 0.0792217 0 -0.00151659 0.0217097 0 0.904727 9.54571e-06 0 0.00119477 0 -19.5214 0 0.001415 
30 1 0.0820501 0 -0.00161268 0.0236026 0 0.960436 1.04159e-05 0 0.00126834 0 -19.864 0 0.001415 
31 1 0.0848784 0 -0.00171065 0.025565 0 1.01708 1.13222e-05 0 0.00134314 0 -20.185 0 0.001415 
32 1 0.0877066 0 -0.0018104 0.0275939 0 1.0746 1.22637e-05 0 0.0014191 0 -20.4847 0 0.001415 
33 1 0.0905348 0 -0.00191183 0.0296863 0 1.13294 1.32396e-05 0 0.00149615 0 -20.7638 0 0.001415 
