ITEM: TIMESTEP
12600000
ITEM: NUMBER OF ATOMS
56
ITEM: BOX BOUNDS ff ff ff
-0.1 0.171215
-0.171215 0.171215
-0.171215 0.171215
ITEM: ATOMS id type x y z vx vy vz fx fy fz omegax omegay omegaz radius 
1 1 5.65988e-16 0 -1.23606e-08 4.49197e-15 0 -9.81e-08 0 0 0 0 0 0 0.001415 
2 1 0.00283 0 -4.89112e-07 -6.71269e-07 0 -0.00262714 -4.89218e-09 0 5.20186e-07 0 1.84153 0 0.001415 
3 1 0.00566 0 -1.9155e-06 -4.81148e-06 0 -0.0104002 -3.71226e-08 0 2.05879e-06 0 3.63676 0 0.001415 
4 1 0.00849 0 -4.28725e-06 -1.5745e-05 0 -0.0231882 -1.21966e-07 0 4.58953e-06 0 5.38569 0 0.001415 
5 1 0.01132 0 -7.60006e-06 -3.66421e-05 0 -0.0408602 -2.82832e-07 0 8.08618e-06 0 7.08834 0 0.001415 
6 1 0.01415 0 -1.18495e-05 -7.0519e-05 0 -0.0632852 -5.40975e-07 0 1.25226e-05 0 8.74472 0 0.001415 
7 1 0.01698 0 -1.70311e-05 -0.000120239 0 -0.0903323 -9.15769e-07 0 1.78726e-05 0 10.3549 0 0.001415 
8 1 0.01981 0 -2.31401e-05 -0.000188513 0 -0.121871 -1.42486e-06 0 2.41102e-05 0 11.9188 0 0.001415 
9 1 0.02264 0 -3.01718e-05 -0.000277898 0 -0.15777 -2.08387e-06 0 3.12094e-05 0 13.4366 0 0.001415 
10 1 0.02547 0 -3.8121e-05 -0.000390798 0 -0.197899 -2.90664e-06 0 3.91442e-05 0 14.9083 0 0.001415 
11 1 0.0283 0 -4.69825e-05 -0.000529467 0 -0.242127 -3.9058e-06 0 4.78887e-05 0 16.334 0 0.001415 
12 1 0.0311299 0 -5.67505e-05 -0.000695999 0 -0.290326 -5.09152e-06 0 5.74172e-05 0 17.7138 0 0.001415 
13 1 0.0339599 0 -6.7419e-05 -0.00089234 0 -0.342364 -6.47335e-06 0 6.77039e-05 0 19.0479 0 0.001415 
14 1 0.0367899 0 -7.89816e-05 -0.00112028 0 -0.398113 -8.05824e-06 0 7.87232e-05 0 20.3363 0 0.001415 
15 1 0.0396199 0 -9.14312e-05 -0.00138144 0 -0.457444 -9.85294e-06 0 9.04497e-05 0 21.5793 0 0.001415 
16 1 0.0424498 0 -0.00010476 -0.0016773 0 -0.520228 -1.18616e-05 0 0.000102858 0 22.7771 0 0.001415 
17 1 0.0452798 0 -0.000118961 -0.00200919 0 -0.586338 -1.4088e-05 0 0.000115923 0 23.9298 0 0.001415 
18 1 0.0481098 0 -0.000134024 -0.00237824 0 -0.655647 -1.6534e-05 0 0.000129619 0 25.0378 0 0.001415 
19 1 0.0509397 0 -0.000149941 -0.00278547 0 -0.728028 -1.92005e-05 0 0.000143921 0 26.1013 0 0.001415 
20 1 0.0537697 0 -0.0001667 -0.0032317 0 -0.803356 -2.20878e-05 0 0.000158805 0 27.1207 0 0.001415 
21 1 0.0565996 0 -0.000184291 -0.00371762 0 -0.881506 -2.51942e-05 0 0.000174246 0 28.0962 0 0.001415 
22 1 0.0594296 0 -0.000202703 -0.00424374 0 -0.962356 -2.85175e-05 0 0.00019022 0 29.0284 0 0.001415 
23 1 0.0622595 0 -0.000221921 -0.00481042 0 -1.04578 -3.20548e-05 0 0.000206702 0 29.9176 0 0.001415 
24 1 0.0650894 0 -0.000241933 -0.00541786 0 -1.13166 -3.58019e-05 0 0.000223669 0 30.7643 0 0.001415 
25 1 0.0679193 0 -0.000262724 -0.00606609 0 -1.21988 -3.97542e-05 0 0.000241097 0 31.5689 0 0.001415 
26 1 0.0707493 0 -0.000284278 -0.00675501 0 -1.31032 -4.39064e-05 0 0.000258963 0 32.3321 0 0.001415 
27 1 0.0735792 0 -0.000306579 -0.00748433 0 -1.40286 -4.82521e-05 0 0.000277244 0 33.0544 0 0.001415 
28 1 0.0764091 0 -0.000329608 -0.00825366 0 -1.49738 -5.27846e-05 0 0.000295917 0 33.7365 0 0.001415 
29 1 0.079239 0 -0.000353348 -0.00906242 0 -1.59378 -5.74969e-05 0 0.000314959 0 34.379 0 0.001415 
30 1 0.0820689 0 -0.000377778 -0.00990992 0 -1.69194 -6.23813e-05 0 0.000334349 0 34.9826 0 0.001415 
31 1 0.0848988 0 -0.000402877 -0.0107953 0 -1.79175 -6.74301e-05 0 0.000354066 0 35.5481 0 0.001415 
32 1 0.0877286 0 -0.000428625 -0.0117176 0 -1.89312 -7.26345e-05 0 0.000374088 0 36.0763 0 0.001415 
33 1 0.0905585 0 -0.000454997 -0.0126758 0 -1.99592 -7.79864e-05 0 0.000394395 0 36.568 0 0.001415 
34 1 0.0933884 0 -0.000481971 -0.0136685 0 -2.10006 -8.34768e-05 0 0.000414966 0 37.0241 0 0.001415 
35 1 0.0962183 0 -0.000509522 -0.0146946 0 -2.20545 -8.9097e-05 0 0.000435782 0 37.4456 0 0.001415 
36 1 0.0990481 0 -0.000537624 -0.0157526 0 -2.31198 -9.48382e-05 0 0.000456824 0 37.8335 0 0.001415 
37 1 0.101878 0 -0.000566251 -0.0168409 0 -2.41956 -0.000100691 0 0.000478074 0 38.1888 0 0.001415 
38 1 0.104708 0 -0.000595376 -0.0179581 0 -2.5281 -0.000106647 0 0.000499513 0 38.5126 0 0.001415 
39 1 0.107538 0 -0.000624971 -0.0191024 0 -2.63751 -0.000112698 0 0.000521124 0 38.806 0 0.001415 
40 1 0.110368 0 -0.000655007 -0.0202722 0 -2.74772 -0.000118834 0 0.00054289 0 39.0702 0 0.001415 
41 1 0.113197 0 -0.000685456 -0.0214656 0 -2.85862 -0.000125048 0 0.000564796 0 39.3065 0 0.001415 
42 1 0.116027 0 -0.000716288 -0.0226809 0 -2.97016 -0.000131331 0 0.000586827 0 39.5162 0 0.001415 
43 1 0.118857 0 -0.000747472 -0.0239163 0 -3.08226 -0.000137675 0 0.000608967 0 39.7005 0 0.001415 
44 1 0.121687 0 -0.00077898 -0.0251698 0 -3.19484 -0.000144073 0 0.000631204 0 39.861 0 0.001415 
45 1 0.124517 0 -0.00081078 -0.0264398 0 -3.30785 -0.000150517 0 0.000653523 0 39.9989 0 0.001415 
46 1 0.127346 0 -0.000842842 -0.0277242 0 -3.42121 -0.000157002 0 0.000675914 0 40.1159 0 0.001415 
47 1 0.130176 0 -0.000875136 -0.0290214 0 -3.53488 -0.00016352 0 0.000698364 0 40.2135 0 0.001415 
48 1 0.133006 0 -0.00090763 -0.0303296 0 -3.6488 -0.000170065 0 0.000720863 0 40.2932 0 0.001415 
49 1 0.135836 0 -0.000940297 -0.031647 0 -3.76292 -0.000176633 0 0.000743403 0 40.3568 0 0.001415 
50 1 0.138666 0 -0.000973104 -0.0329719 0 -3.87719 -0.000183219 0 0.000765974 0 40.4059 0 0.001415 
51 1 0.141496 0 -0.00100602 -0.0343027 0 -3.99159 -0.000189817 0 0.000788568 0 40.4423 0 0.001415 
52 1 0.144325 0 -0.00103903 -0.035638 0 -4.10608 -0.000196425 0 0.000811179 0 40.4678 0 0.001415 
53 1 0.147155 0 -0.00107209 -0.0369762 0 -4.22062 -0.00020304 0 0.000833802 0 40.4842 0 0.001415 
54 1 0.149985 0 -0.00110518 -0.0383161 0 -4.3352 -0.000209658 0 0.000856432 0 40.4935 0 0.001415 
55 1 0.152815 0 -0.00113828 -0.0396564 0 -4.44979 -0.000216279 0 0.000879066 0 40.4977 0 0.001415 
56 1 0.155645 0 -0.00117138 -0.0409968 0 -4.5644 -0.0002229 0 0.000901701 0 40.4988 0 0.001415 
