ITEM: TIMESTEP
1500000
ITEM: NUMBER OF ATOMS
56
ITEM: BOX BOUNDS ff ff ff
-0.1 0.171215
-0.171215 0.171215
-0.171215 0.171215
ITEM: ATOMS id type x y z vx vy vz fx fy fz omegax omegay omegaz radius 
56 1 0.154956 0 -0.0134961 -0.00665966 0 0.0313003 2.3536e-05 0 0.000835877 0 -4.89563 0 0.001415 
51 1 0.140918 0 -0.0117185 -0.0152492 0 -0.0363353 -0.000189332 0 -0.000848174 0 -4.44908 0 0.001415 
52 1 0.143726 0 -0.0120735 -0.0136099 0 -0.0234338 -0.000150732 0 -0.00054241 0 -4.70337 0 0.001415 
53 1 0.146534 0 -0.0124289 -0.0118952 0 -0.00995711 -0.000108758 0 -0.000209694 0 -4.85646 0 0.001415 
54 1 0.149341 0 -0.0127846 -0.0101431 0 0.00380183 -6.51421e-05 0 0.000136445 0 -4.90257 0 0.001415 
55 1 0.152149 0 -0.0131404 -0.00840102 0 0.0175551 -2.07205e-05 0 0.000486477 0 -4.89688 0 0.001415 
46 1 0.126878 0 -0.00996013 -0.0211731 0 -0.0832913 -0.000284666 0 -0.00159703 0 -1.91388 0 0.001415 
47 1 0.129687 0 -0.0103088 -0.0203832 0 -0.0769811 -0.000281733 0 -0.00157705 0 -2.5614 0 0.001415 
48 1 0.132495 0 -0.0106592 -0.0193719 0 -0.0689322 -0.000270113 0 -0.00148674 0 -3.14791 0 0.001415 
49 1 0.135303 0 -0.0110111 -0.0181613 0 -0.0593301 -0.000250262 0 -0.00133032 0 -3.66374 0 0.001415 
50 1 0.138111 0 -0.0113643 -0.0167772 0 -0.0483862 -0.000222967 0 -0.00111447 0 -4.10013 0 0.001415 
40 1 0.110022 0 -0.0079179 -0.0206156 0 -0.0781326 -0.0001342 0 -0.000308192 0 2.60316 0 0.001415 
41 1 0.112832 0 -0.0082512 -0.0213539 0 -0.0843929 -0.000175634 0 -0.000665793 0 1.83965 0 0.001415 
42 1 0.115642 0 -0.00858763 -0.0218386 0 -0.0884802 -0.000211877 0 -0.000976045 0 1.06221 0 0.001415 
43 1 0.118451 0 -0.00892696 -0.0220624 0 -0.0903752 -0.00024177 0 -0.00123037 0 0.284825 0 0.001415 
44 1 0.121261 0 -0.00926898 -0.0220233 0 -0.090098 -0.000264332 0 -0.00142176 0 -0.478889 0 0.001415 
45 1 0.12407 0 -0.00961344 -0.0217241 0 -0.0877057 -0.000278798 0 -0.00154501 0 -1.21589 0 0.001415 
34 1 0.0931507 0 -0.0059962 -0.0118782 0 -0.0009119 0.000148559 0 0.00223793 0 6.12946 0 0.001415 
35 1 0.0959637 0 -0.00630609 -0.0137198 0 -0.0176436 0.000104093 0 0.00182213 0 5.73004 0 0.001415 
36 1 0.0987761 0 -0.00662043 -0.0154473 0 -0.033118 5.68518e-05 0 0.00138798 0 5.24015 0 0.001415 
37 1 0.101588 0 -0.006939 -0.0170283 0 -0.0470951 8.05536e-06 0 0.000946438 0 4.67029 0 0.001415 
38 1 0.1044 0 -0.00726158 -0.0184332 0 -0.0593662 -4.09749e-05 0 0.000508924 0 4.0322 0 0.001415 
39 1 0.107211 0 -0.00758796 -0.0196363 0 -0.0697577 -8.88585e-05 0 8.69514e-05 0 3.33866 0 0.001415 
28 1 0.0762615 0 -0.00424318 -0.000410851 0 0.109582 0.00030942 0 0.00386221 0 6.25251 0 0.001415 
29 1 0.0790778 0 -0.00452151 -0.00219469 0 0.0915452 0.000297743 0 0.00372618 0 6.51886 0 0.001415 
30 1 0.0818935 0 -0.0048057 -0.00407509 0 0.0729224 0.000279694 0 0.0035307 0 6.66967 0 0.001415 
31 1 0.0847086 0 -0.00509551 -0.00601907 0 0.0540416 0.000255351 0 0.00327865 0 6.70389 0 0.001415 
32 1 0.0875232 0 -0.00539068 -0.0079917 0 0.0352303 0.000225005 0 0.00297469 0 6.6227 0 0.001415 
33 1 0.0903372 0 -0.00569099 -0.00995687 0 0.0168096 0.000189168 0 0.00262517 0 6.42944 0 0.001415 
19 1 0.0508872 0 -0.00204544 0.00770781 0 0.199231 0.000199643 0 0.00274449 0 -0.103415 0 0.001415 
20 1 0.0537091 0 -0.00225894 0.00762811 0 0.198243 0.00022252 0 0.00301371 0 0.80657 0 0.001415 
21 1 0.0565304 0 -0.00248081 0.00734488 0 0.1947 0.000244578 0 0.00326309 0 1.70199 0 0.001415 
22 1 0.059351 0 -0.00271072 0.00684907 0 0.188669 0.000265028 0 0.00348483 0 2.56528 0 0.001415 
23 1 0.062171 0 -0.0029484 0.00613699 0 0.180266 0.000283045 0 0.00367133 0 3.37993 0 0.001415 
24 1 0.0649904 0 -0.00319354 0.00521055 0 0.169651 0.000297799 0 0.00381556 0 4.13079 0 0.001415 
25 1 0.0678091 0 -0.00344587 0.00407719 0 0.157024 0.00030849 0 0.00391124 0 4.80427 0 0.001415 
26 1 0.0706272 0 -0.00370509 0.00274977 0 0.142622 0.000314387 0 0.00395323 0 5.38858 0 0.001415 
27 1 0.0734447 0 -0.00397095 0.00124621 0 0.126711 0.00031486 0 0.00393767 0 5.8739 0 0.001415 
1 1 6.73793e-17 0 -1.47149e-09 4.49197e-15 0 -9.81e-08 0 0 0 0 0 0 0.001415 
2 1 0.00282998 0 -7.29071e-06 -3.60897e-07 0 0.00210304 3.01203e-06 0 1.6038e-06 0 -1.42399 0 0.001415 
3 1 0.00565989 0 -2.88838e-05 3.8338e-05 0 0.00795574 6.06611e-06 0 9.84622e-06 0 -2.65011 0 0.001415 
4 1 0.00848966 0 -6.44455e-05 0.00014586 0 0.0169988 9.26196e-06 0 2.8459e-05 0 -3.67933 0 0.001415 
5 1 0.0113192 0 -0.00011364 0.000342625 0 0.0286765 1.27534e-05 0 6.09868e-05 0 -4.51344 0 0.001415 
6 1 0.0141485 0 -0.00017613 0.000640235 0 0.0424399 1.67393e-05 0 0.00011072 0 -5.15534 0 0.001415 
7 1 0.0169775 0 -0.000251578 0.00104208 0 0.0577499 2.14534e-05 0 0.000180604 0 -5.60932 0 0.001415 
8 1 0.0198061 0 -0.000339648 0.00154404 0 0.0740819 2.71507e-05 0 0.000273139 0 -5.88115 0 0.001415 
9 1 0.0226344 0 -0.000440001 0.00213529 0 0.09093 3.40937e-05 0 0.000390261 0 -5.97826 0 0.001415 
10 1 0.0254621 0 -0.0005523 0.00279914 0 0.107812 4.25344e-05 0 0.000533229 0 -5.90979 0 0.001415 
11 1 0.0282894 0 -0.000676209 0.00351405 0 0.124274 5.26972e-05 0 0.000702511 0 -5.68653 0 0.001415 
12 1 0.0311162 0 -0.00081139 0.00425459 0 0.139895 6.4759e-05 0 0.000897688 0 -5.32095 0 0.001415 
13 1 0.0339424 0 -0.000957509 0.00499257 0 0.154293 7.8831e-05 0 0.00111737 0 -4.82706 0 0.001415 
14 1 0.036768 0 -0.00111423 0.00569807 0 0.167127 9.49415e-05 0 0.00135914 0 -4.22026 0 0.001415 
15 1 0.0395931 0 -0.00128123 0.00634058 0 0.1781 0.00011302 0 0.00161956 0 -3.51716 0 0.001415 
16 1 0.0424175 0 -0.00145817 0.00689007 0 0.186967 0.000132886 0 0.00189414 0 -2.73538 0 0.001415 
17 1 0.0452414 0 -0.00164474 0.00731798 0 0.19353 0.000154242 0 0.00217746 0 -1.89327 0 0.001415 
18 1 0.0480646 0 -0.0018406 0.00759817 0 0.197649 0.000176672 0 0.00246324 0 -1.00963 0 0.001415 
