ITEM: TIMESTEP
10500000
ITEM: NUMBER OF ATOMS
56
ITEM: BOX BOUNDS ff ff ff
-0.1 0.171215
-0.171215 0.171215
-0.171215 0.171215
ITEM: ATOMS id type x y z vx vy vz fx fy fz omegax omegay omegaz radius 
1 1 4.71656e-16 0 -1.03005e-08 4.49197e-15 0 -9.81e-08 0 0 0 0 0 0 0.001415 
2 1 0.00283 0 2.03859e-06 -2.66939e-06 0 0.0026882 -3.6692e-09 0 -1.60332e-06 0 -1.88453 0 0.001415 
3 1 0.00565999 0 8.08441e-06 -2.03631e-05 0 0.0106428 -2.77261e-08 0 -6.34602e-06 0 -3.72176 0 0.001415 
4 1 0.00848998 0 1.80052e-05 -6.69186e-05 0 0.0237297 -9.11088e-08 0 -1.41471e-05 0 -5.5117 0 0.001415 
5 1 0.0113199 0 3.16791e-05 -0.00015496 0 0.0418151 -2.11454e-07 0 -2.49256e-05 0 -7.25434 0 0.001415 
6 1 0.0141499 0 4.89844e-05 -0.000295936 0 0.0647651 -4.0481e-07 0 -3.86008e-05 0 -8.9497 0 0.001415 
7 1 0.0169798 0 6.97995e-05 -0.000500151 0 0.0924457 -6.86148e-07 0 -5.50922e-05 0 -10.5978 0 0.001415 
8 1 0.0198097 0 9.40031e-05 -0.000776809 0 0.124723 -1.06864e-06 0 -7.43195e-05 0 -12.1987 0 0.001415 
9 1 0.0226396 0 0.000121474 -0.00113405 0 0.161464 -1.56481e-06 0 -9.62024e-05 0 -13.7524 0 0.001415 
10 1 0.0254694 0 0.000152092 -0.00157897 0 0.202534 -2.18524e-06 0 -0.000120661 0 -15.259 0 0.001415 
11 1 0.0282992 0 0.000185736 -0.0021177 0 0.247801 -2.93991e-06 0 -0.000147615 0 -16.7186 0 0.001415 
12 1 0.031129 0 0.000222287 -0.0027554 0 0.297131 -3.83713e-06 0 -0.000176985 0 -18.1313 0 0.001415 
13 1 0.0339587 0 0.000261627 -0.00349634 0 0.350392 -4.88457e-06 0 -0.000208693 0 -19.4972 0 0.001415 
14 1 0.0367884 0 0.000303636 -0.00434393 0 0.40745 -6.08795e-06 0 -0.000242658 0 -20.8164 0 0.001415 
15 1 0.039618 0 0.000348199 -0.00530072 0 0.468176 -7.45335e-06 0 -0.000278802 0 -22.0892 0 0.001415 
16 1 0.0424477 0 0.000395198 -0.00636853 0 0.532436 -8.98403e-06 0 -0.000317046 0 -23.3157 0 0.001415 
17 1 0.0452772 0 0.000444519 -0.00754842 0 0.6001 -1.06839e-05 0 -0.000357313 0 -24.4961 0 0.001415 
18 1 0.0481068 0 0.000496049 -0.00884074 0 0.671039 -1.2555e-05 0 -0.000399525 0 -25.6308 0 0.001415 
19 1 0.0509362 0 0.000549675 -0.0102452 0 0.745123 -1.45985e-05 0 -0.000443606 0 -26.72 0 0.001415 
20 1 0.0537657 0 0.000605287 -0.011761 0 0.822224 -1.68155e-05 0 -0.000489477 0 -27.764 0 0.001415 
21 1 0.0565951 0 0.000662776 -0.0133867 0 0.902214 -1.92049e-05 0 -0.000537064 0 -28.7633 0 0.001415 
22 1 0.0594245 0 0.000722036 -0.0151203 0 0.984967 -2.17665e-05 0 -0.000586291 0 -29.7181 0 0.001415 
23 1 0.0622538 0 0.000782961 -0.0169594 0 1.07036 -2.44981e-05 0 -0.000637084 0 -30.6289 0 0.001415 
24 1 0.0650832 0 0.000845449 -0.0189012 0 1.15826 -2.73975e-05 0 -0.000689368 0 -31.4963 0 0.001415 
25 1 0.0679124 0 0.000909399 -0.0209426 0 1.24856 -3.04612e-05 0 -0.000743072 0 -32.3206 0 0.001415 
26 1 0.0707417 0 0.000974714 -0.0230799 0 1.34113 -3.3686e-05 0 -0.000798122 0 -33.1025 0 0.001415 
27 1 0.0735709 0 0.0010413 -0.0253094 0 1.43585 -3.7068e-05 0 -0.000854448 0 -33.8426 0 0.001415 
28 1 0.0764001 0 0.00110906 -0.027627 0 1.5326 -4.06016e-05 0 -0.000911979 0 -34.5414 0 0.001415 
29 1 0.0792292 0 0.0011779 -0.0300285 0 1.63128 -4.42827e-05 0 -0.000970648 0 -35.1998 0 0.001415 
30 1 0.0820584 0 0.00124775 -0.0325094 0 1.73176 -4.81051e-05 0 -0.00103039 0 -35.8183 0 0.001415 
31 1 0.0848875 0 0.00131851 -0.0350652 0 1.83393 -5.20634e-05 0 -0.00109113 0 -36.3978 0 0.001415 
32 1 0.0877166 0 0.00139011 -0.0376913 0 1.93768 -5.61511e-05 0 -0.0011528 0 -36.9391 0 0.001415 
33 1 0.0905457 0 0.00146246 -0.0403829 0 2.04292 -6.03624e-05 0 -0.00121536 0 -37.4431 0 0.001415 
34 1 0.0933747 0 0.0015355 -0.0431354 0 2.14952 -6.469e-05 0 -0.00127872 0 -37.9106 0 0.001415 
35 1 0.0962038 0 0.00160915 -0.0459441 0 2.2574 -6.91275e-05 0 -0.00134284 0 -38.3427 0 0.001415 
36 1 0.0990328 0 0.00168334 -0.0488043 0 2.36645 -7.36684e-05 0 -0.00140765 0 -38.7403 0 0.001415 
37 1 0.101862 0 0.00175802 -0.0517115 0 2.47658 -7.83049e-05 0 -0.00147309 0 -39.1045 0 0.001415 
38 1 0.104691 0 0.00183312 -0.0546612 0 2.58769 -8.3031e-05 0 -0.00153912 0 -39.4365 0 0.001415 
39 1 0.10752 0 0.00190858 -0.0576492 0 2.69969 -8.78386e-05 0 -0.00160567 0 -39.7373 0 0.001415 
40 1 0.110349 0 0.00198436 -0.0606711 0 2.81251 -9.2722e-05 0 -0.00167271 0 -40.0083 0 0.001415 
41 1 0.113178 0 0.0020604 -0.0637232 0 2.92605 -9.76732e-05 0 -0.00174016 0 -40.2506 0 0.001415 
42 1 0.116007 0 0.00213666 -0.0668014 0 3.04023 -0.000102687 0 -0.001808 0 -40.4656 0 0.001415 
43 1 0.118836 0 0.0022131 -0.0699024 0 3.15498 -0.000107755 0 -0.00187618 0 -40.6546 0 0.001415 
44 1 0.121665 0 0.00228968 -0.0730226 0 3.27024 -0.000112872 0 -0.00194465 0 -40.8192 0 0.001415 
45 1 0.124494 0 0.00236638 -0.0761591 0 3.38592 -0.000118033 0 -0.00201337 0 -40.9607 0 0.001415 
46 1 0.127323 0 0.00244315 -0.0793089 0 3.50198 -0.000123229 0 -0.00208231 0 -41.0807 0 0.001415 
47 1 0.130152 0 0.00251999 -0.0824696 0 3.61835 -0.000128458 0 -0.00215143 0 -41.1808 0 0.001415 
48 1 0.132981 0 0.00259686 -0.0856387 0 3.73497 -0.000133713 0 -0.00222071 0 -41.2626 0 0.001415 
49 1 0.135809 0 0.00267375 -0.0888144 0 3.8518 -0.000138989 0 -0.0022901 0 -41.3278 0 0.001415 
50 1 0.138638 0 0.00275066 -0.0919949 0 3.96879 -0.000144283 0 -0.00235959 0 -41.3782 0 0.001415 
51 1 0.141467 0 0.00282756 -0.0951788 0 4.0859 -0.00014959 0 -0.00242916 0 -41.4155 0 0.001415 
52 1 0.144296 0 0.00290447 -0.0983651 0 4.20311 -0.000154906 0 -0.00249877 0 -41.4417 0 0.001415 
53 1 0.147125 0 0.00298137 -0.101553 0 4.32037 -0.000160228 0 -0.00256842 0 -41.4585 0 0.001415 
54 1 0.149954 0 0.00305828 -0.104742 0 4.43767 -0.000165555 0 -0.00263809 0 -41.4681 0 0.001415 
55 1 0.152783 0 0.0031352 -0.107932 0 4.55499 -0.000170883 0 -0.00270778 0 -41.4724 0 0.001415 
56 1 0.155612 0 0.00321213 -0.111122 0 4.67232 -0.000176212 0 -0.00277746 0 -41.4735 0 0.001415 
