ITEM: TIMESTEP
6700000
ITEM: NUMBER OF ATOMS
56
ITEM: BOX BOUNDS ff ff ff
-0.1 0.171215
-0.171215 0.171215
-0.171215 0.171215
ITEM: ATOMS id type x y z vx vy vz fx fy fz omegax omegay omegaz radius 
47 1 0.130021 0 -0.00587043 -0.172939 0 -3.20772 0.000111475 0 0.00466931 0 36.5941 0 0.001415 
48 1 0.132845 0 -0.00606385 -0.180025 0 -3.31115 0.000116116 0 0.00481947 0 36.6674 0 0.001415 
49 1 0.135668 0 -0.00625773 -0.187141 0 -3.41477 0.000120778 0 0.00496989 0 36.726 0 0.001415 
50 1 0.138491 0 -0.00645198 -0.19428 0 -3.51853 0.000125458 0 0.00512052 0 36.7712 0 0.001415 
51 1 0.141315 0 -0.00664651 -0.201436 0 -3.62239 0.000130151 0 0.0052713 0 36.8047 0 0.001415 
52 1 0.144138 0 -0.00684124 -0.208606 0 -3.72634 0.000134855 0 0.00542219 0 36.8282 0 0.001415 
53 1 0.146961 0 -0.00703612 -0.215785 0 -3.83034 0.000139565 0 0.00557316 0 36.8433 0 0.001415 
54 1 0.149784 0 -0.00723107 -0.222969 0 -3.93438 0.00014428 0 0.00572418 0 36.8519 0 0.001415 
55 1 0.152608 0 -0.00742606 -0.230155 0 -4.03843 0.000148995 0 0.00587521 0 36.8558 0 0.001415 
56 1 0.155431 0 -0.00762105 -0.237342 0 -4.14248 0.000153711 0 0.00602626 0 36.8568 0 0.001415 
37 1 0.101784 0 -0.00398584 -0.105339 0 -2.19518 6.74061e-05 0 0.00319863 0 34.7355 0 0.001415 
38 1 0.104608 0 -0.00416832 -0.111706 0 -2.2937 7.15375e-05 0 0.00334181 0 35.0324 0 0.001415 
39 1 0.107432 0 -0.0043525 -0.118184 0 -2.39303 7.57456e-05 0 0.00348612 0 35.3015 0 0.001415 
40 1 0.110256 0 -0.00453823 -0.124765 0 -2.49307 8.0025e-05 0 0.00363147 0 35.5439 0 0.001415 
41 1 0.11308 0 -0.00472537 -0.131438 0 -2.59376 8.43691e-05 0 0.00377773 0 35.7608 0 0.001415 
42 1 0.115904 0 -0.00491378 -0.138195 0 -2.69502 8.87726e-05 0 0.00392481 0 35.9533 0 0.001415 
43 1 0.118727 0 -0.00510333 -0.145027 0 -2.79679 9.3229e-05 0 0.00407261 0 36.1226 0 0.001415 
44 1 0.121551 0 -0.00529389 -0.151925 0 -2.899 9.77329e-05 0 0.00422104 0 36.27 0 0.001415 
45 1 0.124374 0 -0.00548534 -0.158882 0 -3.0016 0.000102279 0 0.00437002 0 36.3968 0 0.001415 
46 1 0.127198 0 -0.00567755 -0.165889 0 -3.10452 0.000106861 0 0.00451947 0 36.5043 0 0.001415 
25 1 0.0678832 0 -0.00198711 -0.0409328 0 -1.10638 2.59301e-05 0 0.00161469 0 28.6828 0 0.001415 
26 1 0.0707092 0 -0.00213648 -0.0452705 0 -1.18844 2.87022e-05 0 0.0017342 0 29.3794 0 0.001415 
27 1 0.0735351 0 -0.00228955 -0.0498199 0 -1.27241 3.16136e-05 0 0.00185647 0 30.039 0 0.001415 
28 1 0.0763608 0 -0.00244616 -0.0545746 0 -1.35819 3.466e-05 0 0.00198134 0 30.662 0 0.001415 
29 1 0.0791862 0 -0.00260612 -0.0595278 0 -1.44567 3.78383e-05 0 0.00210866 0 31.2491 0 0.001415 
30 1 0.0820115 0 -0.00276927 -0.0646723 0 -1.53475 4.11431e-05 0 0.0022383 0 31.8008 0 0.001415 
31 1 0.0848367 0 -0.00293541 -0.0700003 0 -1.62534 4.45707e-05 0 0.00237009 0 32.3179 0 0.001415 
32 1 0.0876616 0 -0.00310438 -0.0755034 0 -1.71733 4.8115e-05 0 0.00250391 0 32.8011 0 0.001415 
33 1 0.0904864 0 -0.00327602 -0.0811733 0 -1.81064 5.1772e-05 0 0.00263961 0 33.251 0 0.001415 
34 1 0.093311 0 -0.00345014 -0.0870009 0 -1.90517 5.55349e-05 0 0.00277706 0 33.6686 0 0.001415 
35 1 0.0961355 0 -0.0036266 -0.0929773 0 -2.00082 5.9399e-05 0 0.00291613 0 34.0546 0 0.001415 
36 1 0.0989599 0 -0.00380522 -0.0990932 0 -2.09752 6.33583e-05 0 0.00305669 0 34.4099 0 0.001415 
1 1 3.00962e-16 0 -6.57269e-09 4.49197e-15 0 -9.81e-08 0 0 0 0 0 0 0.001415 
2 1 0.00283 0 -4.19754e-06 -4.9532e-06 0 -0.00237942 3.10699e-09 0 3.48678e-06 0 1.66813 0 0.001415 
3 1 0.00565997 0 -1.66139e-05 -3.72332e-05 0 -0.00942083 2.32714e-08 0 1.38015e-05 0 3.2948 0 0.001415 
4 1 0.0084899 0 -3.70661e-05 -0.00012231 0 -0.0210068 7.63963e-08 0 3.0768e-05 0 4.88001 0 0.001415 
5 1 0.0113198 0 -6.53646e-05 -0.000283742 0 -0.0370197 1.77198e-07 0 5.42102e-05 0 6.42371 0 0.001415 
6 1 0.0141495 0 -0.00010132 -0.000543216 0 -0.0573417 3.39396e-07 0 8.39522e-05 0 7.92592 0 0.001415 
7 1 0.0169792 0 -0.000144742 -0.000920604 0 -0.0818551 5.75447e-07 0 0.000119818 0 9.38663 0 0.001415 
8 1 0.0198087 0 -0.000195441 -0.001434 0 -0.110442 8.96877e-07 0 0.000161632 0 10.8058 0 0.001415 
9 1 0.0226381 0 -0.000253228 -0.00209977 0 -0.142984 1.31403e-06 0 0.000209219 0 12.1836 0 0.001415 
10 1 0.0254674 0 -0.000317911 -0.00293262 0 -0.179364 1.83638e-06 0 0.000262404 0 13.5199 0 0.001415 
11 1 0.0282965 0 -0.000389303 -0.0039456 0 -0.219464 2.4723e-06 0 0.000321011 0 14.8149 0 0.001415 
12 1 0.0311254 0 -0.000467212 -0.00515021 0 -0.263166 3.2293e-06 0 0.000384868 0 16.0685 0 0.001415 
13 1 0.0339542 0 -0.000551449 -0.00655641 0 -0.310353 4.11397e-06 0 0.000453799 0 17.281 0 0.001415 
14 1 0.0367827 0 -0.000641824 -0.00817268 0 -0.360909 5.13181e-06 0 0.000527632 0 18.4524 0 0.001415 
15 1 0.0396111 0 -0.000738148 -0.0100061 0 -0.414716 6.28768e-06 0 0.000606195 0 19.5828 0 0.001415 
16 1 0.0424393 0 -0.000840231 -0.0120624 0 -0.471659 7.5855e-06 0 0.000689315 0 20.6724 0 0.001415 
17 1 0.0452672 0 -0.000947885 -0.0143459 0 -0.531621 9.02859e-06 0 0.000776821 0 21.7213 0 0.001415 
18 1 0.048095 0 -0.00106092 -0.0168598 0 -0.594487 1.06189e-05 0 0.000868544 0 22.7299 0 0.001415 
19 1 0.0509225 0 -0.00117915 -0.019606 0 -0.660144 1.23585e-05 0 0.000964316 0 23.6984 0 0.001415 
20 1 0.0537498 0 -0.00130238 -0.0225852 0 -0.728478 1.42478e-05 0 0.00106397 0 24.6269 0 0.001415 
21 1 0.0565769 0 -0.00143044 -0.0257973 0 -0.799375 1.62876e-05 0 0.00116734 0 25.5158 0 0.001415 
22 1 0.0594038 0 -0.00156312 -0.0292408 0 -0.872724 1.84767e-05 0 0.00127425 0 26.3655 0 0.001415 
23 1 0.0622305 0 -0.00170025 -0.0329135 0 -0.948415 2.0815e-05 0 0.00138456 0 27.1763 0 0.001415 
24 1 0.0650569 0 -0.00184164 -0.0368122 0 -1.02634 2.33001e-05 0 0.00149809 0 27.9486 0 0.001415 
