ITEM: TIMESTEP
2100000
ITEM: NUMBER OF ATOMS
56
ITEM: BOX BOUNDS ff ff ff
-0.1 0.171215
-0.171215 0.171215
-0.171215 0.171215
ITEM: ATOMS id type x y z vx vy vz fx fy fz omegax omegay omegaz radius 
56 1 0.154944 0 -0.0135086 -0.0176703 0 -0.0228935 4.39767e-05 0 6.29871e-05 0 5.41566 0 0.001415 
51 1 0.140912 0 -0.0116871 -0.0078461 0 0.0527426 1.83116e-05 0 -0.000139335 0 5.28474 0 0.001415 
52 1 0.143719 0 -0.0120508 -0.0097848 0 0.0377977 2.3375e-05 0 -9.93772e-05 0 5.35651 0 0.001415 
53 1 0.146525 0 -0.012415 -0.0117474 0 0.0226912 2.85026e-05 0 -5.89708e-05 0 5.40004 0 0.001415 
54 1 0.149332 0 -0.0127795 -0.0137221 0 0.00750272 3.36617e-05 0 -1.83355e-05 0 5.41504 0 0.001415 
55 1 0.152138 0 -0.013144 -0.0156961 0 -0.00769501 3.88191e-05 0 2.23244e-05 0 5.41551 0 0.001415 
46 1 0.126877 0 -0.00988634 0.00109914 0 0.122358 -5.02153e-06 0 -0.000324968 0 4.5241 0 0.001415 
47 1 0.129685 0 -0.0102432 -0.000555269 0 0.109362 -7.12164e-07 0 -0.000290405 0 4.72697 0 0.001415 
48 1 0.132492 0 -0.010602 -0.00228691 0 0.0958307 3.80214e-06 0 -0.000254365 0 4.90547 0 0.001415 
49 1 0.135299 0 -0.0109625 -0.00408617 0 0.0818351 8.49587e-06 0 -0.000217038 0 5.05852 0 0.001415 
50 1 0.138106 0 -0.0113242 -0.00594283 0 0.0674474 1.33418e-05 0 -0.000178626 0 5.18521 0 0.001415 
40 1 0.110026 0 -0.00779986 0.00896328 0 0.185639 -2.5412e-05 0 -0.000491948 0 2.87224 0 0.001415 
41 1 0.112836 0 -0.00813973 0.00792968 0 0.177115 -2.27479e-05 0 -0.000469657 0 3.19134 0 0.001415 
42 1 0.115645 0 -0.00848311 0.00677841 0 0.167717 -1.97717e-05 0 -0.000444979 0 3.49523 0 0.001415 
43 1 0.118453 0 -0.00882973 0.00551385 0 0.157489 -1.64958e-05 0 -0.000418031 0 3.7821 0 0.001415 
44 1 0.121262 0 -0.00917932 0.0041414 0 0.146483 -1.29339e-05 0 -0.000388946 0 4.05025 0 0.001415 
45 1 0.12407 0 -0.00953161 0.0026674 0 0.134753 -9.10264e-06 0 -0.000357873 0 4.29808 0 0.001415 
34 1 0.0931586 0 -0.00584901 0.0125829 0 0.216555 -3.4567e-05 0 -0.000570894 0 0.75057 0 0.001415 
35 1 0.0959712 0 -0.00616232 0.0122875 0 0.213926 -3.3855e-05 0 -0.000564531 0 1.11823 0 0.001415 
36 1 0.0987832 0 -0.00648071 0.0118706 0 0.210267 -3.28217e-05 0 -0.000555406 0 1.48319 0 0.001415 
37 1 0.101595 0 -0.00680392 0.0113302 0 0.205589 -3.14625e-05 0 -0.00054354 0 1.84323 0 0.001415 
38 1 0.104406 0 -0.00713169 0.0106652 0 0.199908 -2.97739e-05 0 -0.000528969 0 2.19616 0 0.001415 
39 1 0.107216 0 -0.00746376 0.00987589 0 0.193249 -2.7756e-05 0 -0.000511748 0 2.53985 0 0.001415 
28 1 0.07627 0 -0.00409033 0.0120447 0 0.210861 -3.27463e-05 0 -0.000552134 0 -1.38485 0 0.001415 
29 1 0.0790864 0 -0.00436774 0.0123801 0 0.214293 -3.36967e-05 0 -0.000561793 0 -1.04873 0 0.001415 
30 1 0.0819021 0 -0.00465177 0.0126264 0 0.216762 -3.44129e-05 0 -0.000568932 0 -0.701682 0 0.001415 
31 1 0.0847172 0 -0.00494217 0.0127762 0 0.218241 -3.48748e-05 0 -0.00057347 0 -0.345947 0 0.001415 
32 1 0.0875316 0 -0.00523868 0.0128227 0 0.218707 -3.50647e-05 0 -0.00057534 0 0.016198 0 0.001415 
33 1 0.0903454 0 -0.00554105 0.0127599 0 0.218148 -3.49666e-05 0 -0.000574492 0 0.382466 0 0.001415 
19 1 0.0508923 0 -0.00193285 0.00651362 0 0.144116 -1.76247e-05 0 -0.00037323 0 -3.56915 0 0.001415 
20 1 0.0537148 0 -0.00213945 0.00723428 0 0.153999 -1.95778e-05 0 -0.000399305 0 -3.42456 0 0.001415 
21 1 0.0565366 0 -0.0023549 0.00795163 0 0.163431 -2.15242e-05 0 -0.000424277 0 -3.25126 0 0.001415 
22 1 0.0593577 0 -0.00257896 0.00865584 0 0.172333 -2.34376e-05 0 -0.000447935 0 -3.05092 0 0.001415 
23 1 0.0621781 0 -0.00281138 0.00933686 0 0.180631 -2.52921e-05 0 -0.000470083 0 -2.82529 0 0.001415 
24 1 0.0649978 0 -0.00305193 0.00998461 0 0.188257 -2.706e-05 0 -0.000490536 0 -2.5762 0 0.001415 
25 1 0.0678169 0 -0.00330034 0.010589 0 0.195147 -2.87155e-05 0 -0.000509119 0 -2.30558 0 0.001415 
26 1 0.0706353 0 -0.00355638 0.0111402 0 0.201245 -3.0232e-05 0 -0.000525675 0 -2.01542 0 0.001415 
27 1 0.073453 0 -0.00381979 0.0116285 0 0.206498 -3.15835e-05 0 -0.000540056 0 -1.7078 0 0.001415 
1 1 9.43311e-17 0 -2.06009e-09 4.49197e-15 0 -9.81e-08 0 0 0 0 0 0 0.001415 
2 1 0.00282998 0 -6.63846e-06 -4.70634e-07 0 0.000779203 8.98233e-10 0 -1.98792e-06 0 -0.537439 0 0.001415 
3 1 0.00565991 0 -2.63603e-05 1.28125e-05 0 0.00302083 -3.55909e-08 0 -7.70718e-06 0 -1.03349 0 0.001415 
4 1 0.00848971 0 -5.89394e-05 5.17278e-05 0 0.00660758 -1.41664e-07 0 -1.68668e-05 0 -1.4882 0 0.001415 
5 1 0.0113193 0 -0.000104147 0.000126234 0 0.0114224 -3.44264e-07 0 -2.9176e-05 0 -1.90167 0 0.001415 
6 1 0.0141487 0 -0.000161752 0.000244433 0 0.0173485 -6.65184e-07 0 -4.43447e-05 0 -2.27402 0 0.001415 
7 1 0.0169779 0 -0.000231526 0.000412632 0 0.0242694 -1.12133e-06 0 -6.20834e-05 0 -2.60544 0 0.001415 
8 1 0.0198067 0 -0.000313236 0.00063541 0 0.0320694 -1.72503e-06 0 -8.21042e-05 0 -2.89617 0 0.001415 
9 1 0.0226351 0 -0.000406649 0.000915697 0 0.0406336 -2.48401e-06 0 -0.00010412 0 -3.14656 0 0.001415 
10 1 0.0254632 0 -0.000511534 0.00125484 0 0.0498479 -3.40191e-06 0 -0.000127848 0 -3.35699 0 0.001415 
11 1 0.0282908 0 -0.000627656 0.00165271 0 0.0595998 -4.47818e-06 0 -0.000153004 0 -3.52798 0 0.001415 
12 1 0.0311179 0 -0.000754781 0.00210775 0 0.0697783 -5.70863e-06 0 -0.000179311 0 -3.66011 0 0.001415 
13 1 0.0339446 0 -0.000892673 0.00261711 0 0.0802742 -7.08575e-06 0 -0.000206494 0 -3.75409 0 0.001415 
14 1 0.0367707 0 -0.0010411 0.0031767 0 0.0909806 -8.59835e-06 0 -0.000234282 0 -3.81071 0 0.001415 
15 1 0.0395962 0 -0.00119981 0.00378134 0 0.101793 -1.02329e-05 0 -0.000262409 0 -3.83089 0 0.001415 
16 1 0.0424212 0 -0.00136859 0.00442483 0 0.112609 -1.19726e-05 0 -0.000290617 0 -3.81564 0 0.001415 
17 1 0.0452455 0 -0.00154718 0.00510007 0 0.123332 -1.37988e-05 0 -0.000318653 0 -3.76609 0 0.001415 
18 1 0.0480692 0 -0.00173534 0.00579918 0 0.133864 -1.56904e-05 0 -0.000346269 0 -3.68347 0 0.001415 
