ITEM: TIMESTEP
12100000
ITEM: NUMBER OF ATOMS
56
ITEM: BOX BOUNDS ff ff ff
-0.1 0.171215
-0.171215 0.171215
-0.171215 0.171215
ITEM: ATOMS id type x y z vx vy vz fx fy fz omegax omegay omegaz radius 
48 1 0.132993 0 -0.00193287 0.0626596 0 3.58979 -0.00014609 0 0.00139649 0 -39.6453 0 0.001415 
49 1 0.135822 0 -0.00199764 0.0652297 0 3.70205 -0.0001517 0 0.00144023 0 -39.7078 0 0.001415 
50 1 0.138651 0 -0.0020626 0.0678109 0 3.81447 -0.000157324 0 0.00148404 0 -39.7561 0 0.001415 
51 1 0.141481 0 -0.00212771 0.0704006 0 3.92701 -0.000162959 0 0.0015279 0 -39.7919 0 0.001415 
52 1 0.14431 0 -0.00219292 0.0729965 0 4.03963 -0.000168601 0 0.00157179 0 -39.817 0 0.001415 
53 1 0.147139 0 -0.00225821 0.0755968 0 4.15231 -0.000174249 0 0.0016157 0 -39.8331 0 0.001415 
54 1 0.149968 0 -0.00232354 0.0781994 0 4.26502 -0.000179899 0 0.00165963 0 -39.8423 0 0.001415 
55 1 0.152798 0 -0.00238888 0.0808028 0 4.37775 -0.000185552 0 0.00170356 0 -39.8464 0 0.001415 
56 1 0.155627 0 -0.00245422 0.0834066 0 4.49049 -0.000191204 0 0.0017475 0 -39.8475 0 0.001415 
1 1 5.43528e-16 0 -1.18701e-08 4.49197e-15 0 -9.81e-08 0 0 0 0 0 0 0.001415 
2 1 0.00283 0 -1.22462e-06 1.57491e-06 0 0.00258481 -4.24973e-09 0 1.00335e-06 0 -1.81196 0 0.001415 
3 1 0.00566 0 -4.82947e-06 1.17702e-05 0 0.0102331 -3.22969e-08 0 3.97209e-06 0 -3.57837 0 0.001415 
4 1 0.00848999 0 -1.07856e-05 3.86917e-05 0 0.0228159 -1.06123e-07 0 8.85597e-06 0 -5.29925 0 0.001415 
5 1 0.01132 0 -1.90523e-05 8.99102e-05 0 0.0402043 -2.45985e-07 0 1.56049e-05 0 -6.9746 0 0.001415 
6 1 0.01415 0 -2.95886e-05 0.000172473 0 0.0622694 -4.70342e-07 0 2.41687e-05 0 -8.60443 0 0.001415 
7 1 0.0169799 0 -4.23534e-05 0.000292912 0 0.0888825 -7.96063e-07 0 3.44976e-05 0 -10.1888 0 0.001415 
8 1 0.0198099 0 -5.73058e-05 0.00045726 0 0.119915 -1.23816e-06 0 4.65417e-05 0 -11.7277 0 0.001415 
9 1 0.0226398 0 -7.44043e-05 0.000671054 0 0.155238 -1.81036e-06 0 6.02514e-05 0 -13.2211 0 0.001415 
10 1 0.0254698 0 -9.36076e-05 0.000939352 0 0.194722 -2.52453e-06 0 7.5577e-05 0 -14.6693 0 0.001415 
11 1 0.0282997 0 -0.000114874 0.00126674 0 0.238241 -3.39138e-06 0 9.2469e-05 0 -16.0722 0 0.001415 
12 1 0.0311296 0 -0.000138162 0.00165734 0 0.285666 -4.41971e-06 0 0.000110878 0 -17.4299 0 0.001415 
13 1 0.0339595 0 -0.000163428 0.00211483 0 0.336869 -5.61761e-06 0 0.000130755 0 -18.7426 0 0.001415 
14 1 0.0367894 0 -0.000190631 0.00264245 0 0.391722 -6.99105e-06 0 0.000152051 0 -20.0104 0 0.001415 
15 1 0.0396192 0 -0.000219728 0.00324299 0 0.4501 -8.54545e-06 0 0.000174718 0 -21.2335 0 0.001415 
16 1 0.042449 0 -0.000250675 0.00391885 0 0.511875 -1.02845e-05 0 0.000198706 0 -22.4121 0 0.001415 
17 1 0.0452789 0 -0.000283428 0.00467202 0 0.576922 -1.22114e-05 0 0.000223966 0 -23.5464 0 0.001415 
18 1 0.0481086 0 -0.000317943 0.00550407 0 0.645117 -1.43271e-05 0 0.000250452 0 -24.6366 0 0.001415 
19 1 0.0509384 0 -0.000354176 0.0064162 0 0.716333 -1.66329e-05 0 0.000278115 0 -25.6831 0 0.001415 
20 1 0.0537682 0 -0.000392081 0.00740926 0 0.790449 -1.91279e-05 0 0.000306908 0 -26.6861 0 0.001415 
21 1 0.0565979 0 -0.000431613 0.0084837 0 0.867341 -2.18114e-05 0 0.000336783 0 -27.646 0 0.001415 
22 1 0.0594276 0 -0.000472724 0.00963965 0 0.946888 -2.46808e-05 0 0.000367694 0 -28.5632 0 0.001415 
23 1 0.0622573 0 -0.000515369 0.0108769 0 1.02897 -2.77335e-05 0 0.000399594 0 -29.4381 0 0.001415 
24 1 0.0650869 0 -0.000559499 0.0121949 0 1.11347 -3.09659e-05 0 0.000432438 0 -30.2712 0 0.001415 
25 1 0.0679166 0 -0.000605067 0.0135928 0 1.20026 -3.43733e-05 0 0.000466179 0 -31.0629 0 0.001415 
26 1 0.0707462 0 -0.000652023 0.0150696 0 1.28924 -3.79516e-05 0 0.000500773 0 -31.8138 0 0.001415 
27 1 0.0735758 0 -0.000700318 0.0166237 0 1.38028 -4.16946e-05 0 0.000536175 0 -32.5245 0 0.001415 
28 1 0.0764053 0 -0.000749904 0.0182536 0 1.47328 -4.5597e-05 0 0.000572343 0 -33.1955 0 0.001415 
29 1 0.0792349 0 -0.000800728 0.0199573 0 1.56812 -4.96517e-05 0 0.000609232 0 -33.8277 0 0.001415 
30 1 0.0820644 0 -0.000852741 0.0217327 0 1.6647 -5.38532e-05 0 0.000646801 0 -34.4215 0 0.001415 
31 1 0.0848939 0 -0.00090589 0.0235775 0 1.7629 -5.81932e-05 0 0.000685007 0 -34.9778 0 0.001415 
32 1 0.0877234 0 -0.000960125 0.0254891 0 1.86262 -6.26654e-05 0 0.00072381 0 -35.4974 0 0.001415 
33 1 0.0905528 0 -0.00101539 0.0274648 0 1.96376 -6.7262e-05 0 0.00076317 0 -35.9812 0 0.001415 
34 1 0.0933823 0 -0.00107164 0.0295018 0 2.06621 -7.19756e-05 0 0.000803049 0 -36.4299 0 0.001415 
35 1 0.0962117 0 -0.00112882 0.0315971 0 2.16989 -7.67982e-05 0 0.000843407 0 -36.8446 0 0.001415 
36 1 0.0990411 0 -0.00118687 0.0337475 0 2.27469 -8.17225e-05 0 0.000884207 0 -37.2261 0 0.001415 
37 1 0.10187 0 -0.00124575 0.0359499 0 2.38053 -8.67409e-05 0 0.000925415 0 -37.5756 0 0.001415 
38 1 0.1047 0 -0.00130539 0.038201 0 2.48731 -9.18454e-05 0 0.000966995 0 -37.8941 0 0.001415 
39 1 0.107529 0 -0.00136575 0.0404976 0 2.59495 -9.70287e-05 0 0.00100891 0 -38.1827 0 0.001415 
40 1 0.110359 0 -0.00142678 0.0428361 0 2.70336 -0.000102283 0 0.00105114 0 -38.4426 0 0.001415 
41 1 0.113188 0 -0.00148842 0.0452133 0 2.81247 -0.000107602 0 0.00109363 0 -38.675 0 0.001415 
42 1 0.116017 0 -0.00155063 0.0476258 0 2.92219 -0.000112979 0 0.00113638 0 -38.8812 0 0.001415 
43 1 0.118847 0 -0.00161334 0.0500702 0 3.03247 -0.000118406 0 0.00117934 0 -39.0625 0 0.001415 
44 1 0.121676 0 -0.00167652 0.0525434 0 3.14322 -0.000123877 0 0.00122248 0 -39.2203 0 0.001415 
45 1 0.124505 0 -0.0017401 0.0550419 0 3.25439 -0.000129387 0 0.0012658 0 -39.3559 0 0.001415 
46 1 0.127334 0 -0.00180406 0.0575628 0 3.36591 -0.000134929 0 0.00130925 0 -39.471 0 0.001415 
47 1 0.130164 0 -0.00186833 0.060103 0 3.47773 -0.000140498 0 0.00135282 0 -39.5669 0 0.001415 
