ITEM: TIMESTEP
12400000
ITEM: NUMBER OF ATOMS
56
ITEM: BOX BOUNDS ff ff ff
-0.1 0.171215
-0.171215 0.171215
-0.171215 0.171215
ITEM: ATOMS id type x y z vx vy vz fx fy fz omegax omegay omegaz radius 
1 1 5.57004e-16 0 -1.21644e-08 4.49197e-15 0 -9.81e-08 0 0 0 0 0 0 0.001415 
2 1 0.00283 0 3.65147e-06 1.30524e-06 0 -0.000733697 4.62145e-09 0 -2.81842e-06 0 0.514192 0 0.001415 
3 1 0.00565998 0 1.44758e-05 9.95152e-06 0 -0.00290425 3.52764e-08 0 -1.11582e-05 0 1.01553 0 0.001415 
4 1 0.00848992 0 3.22587e-05 3.27247e-05 0 -0.00647533 1.15975e-07 0 -2.48792e-05 0 1.504 0 0.001415 
5 1 0.0113198 0 5.67981e-05 7.5842e-05 0 -0.0114105 2.6881e-07 0 -4.3841e-05 0 1.97961 0 0.001415 
6 1 0.0141496 0 8.7892e-05 0.000144968 0 -0.0176732 5.13741e-07 0 -6.79034e-05 0 2.44235 0 0.001415 
7 1 0.0169794 0 0.000125339 0.00024523 0 -0.025227 8.68908e-07 0 -9.69259e-05 0 2.89222 0 0.001415 
8 1 0.0198091 0 0.000168936 0.000381235 0 -0.0340353 1.3507e-06 0 -0.000130768 0 3.32924 0 0.001415 
9 1 0.0226386 0 0.000218484 0.000557086 0 -0.0440617 1.97356e-06 0 -0.00016929 0 3.75341 0 0.001415 
10 1 0.0254681 0 0.00027378 0.0007764 0 -0.0552698 2.75018e-06 0 -0.000212351 0 4.16474 0 0.001415 
11 1 0.0282974 0 0.000334626 0.00104232 0 -0.067623 3.69167e-06 0 -0.000259811 0 4.56326 0 0.001415 
12 1 0.0311267 0 0.000400821 0.00135755 0 -0.0810851 4.80765e-06 0 -0.000311531 0 4.94898 0 0.001415 
13 1 0.0339558 0 0.000472167 0.00172434 0 -0.0956198 6.10581e-06 0 -0.000367371 0 5.32194 0 0.001415 
14 1 0.0367847 0 0.000548466 0.00214454 0 -0.111191 7.59289e-06 0 -0.000427192 0 5.68219 0 0.001415 
15 1 0.0396136 0 0.000629523 0.00261961 0 -0.127762 9.27385e-06 0 -0.000490856 0 6.02975 0 0.001415 
16 1 0.0424423 0 0.000715142 0.00315061 0 -0.145298 1.11522e-05 0 -0.000558224 0 6.36468 0 0.001415 
17 1 0.0452708 0 0.000805129 0.00373826 0 -0.163763 1.32307e-05 0 -0.000629159 0 6.68706 0 0.001415 
18 1 0.0480993 0 0.000899294 0.00438293 0 -0.183121 1.55106e-05 0 -0.000703525 0 6.99693 0 0.001415 
19 1 0.0509276 0 0.000997446 0.0050847 0 -0.203337 1.79917e-05 0 -0.000781186 0 7.29439 0 0.001415 
20 1 0.0537557 0 0.0010994 0.00584332 0 -0.224376 2.06736e-05 0 -0.000862007 0 7.57951 0 0.001415 
21 1 0.0565838 0 0.00120496 0.00665827 0 -0.246202 2.35539e-05 0 -0.000945855 0 7.8524 0 0.001415 
22 1 0.0594117 0 0.00131396 0.00752878 0 -0.268782 2.663e-05 0 -0.0010326 0 8.11317 0 0.001415 
23 1 0.0622394 0 0.00142621 0.00845385 0 -0.292082 2.98984e-05 0 -0.0011221 0 8.36192 0 0.001415 
24 1 0.0650671 0 0.00154154 0.00943225 0 -0.316067 3.33544e-05 0 -0.00121424 0 8.59879 0 0.001415 
25 1 0.0678946 0 0.00165977 0.0104626 0 -0.340704 3.69931e-05 0 -0.00130888 0 8.82391 0 0.001415 
26 1 0.070722 0 0.00178072 0.0115432 0 -0.36596 4.08089e-05 0 -0.00140589 0 9.03744 0 0.001415 
27 1 0.0735493 0 0.00190425 0.0126724 0 -0.391803 4.47953e-05 0 -0.00150516 0 9.23954 0 0.001415 
28 1 0.0763765 0 0.00203017 0.0138482 0 -0.4182 4.89458e-05 0 -0.00160656 0 9.43038 0 0.001415 
29 1 0.0792036 0 0.00215833 0.0150687 0 -0.445119 5.32529e-05 0 -0.00170996 0 9.61015 0 0.001415 
30 1 0.0820306 0 0.00228857 0.0163318 0 -0.472531 5.77093e-05 0 -0.00181526 0 9.77904 0 0.001415 
31 1 0.0848575 0 0.00242076 0.0176352 0 -0.500404 6.23075e-05 0 -0.00192232 0 9.93727 0 0.001415 
32 1 0.0876844 0 0.00255473 0.0189768 0 -0.528709 6.70392e-05 0 -0.00203105 0 10.0851 0 0.001415 
33 1 0.0905111 0 0.00269034 0.0203542 0 -0.557416 7.18963e-05 0 -0.00214131 0 10.2226 0 0.001415 
34 1 0.0933378 0 0.00282747 0.021765 0 -0.586497 7.68707e-05 0 -0.00225301 0 10.3503 0 0.001415 
35 1 0.0961644 0 0.00296597 0.0232071 0 -0.615924 8.19541e-05 0 -0.00236605 0 10.4682 0 0.001415 
36 1 0.0989909 0 0.00310572 0.024678 0 -0.645671 8.71384e-05 0 -0.0024803 0 10.5768 0 0.001415 
37 1 0.101817 0 0.00324661 0.0261754 0 -0.675711 9.2415e-05 0 -0.00259569 0 10.6762 0 0.001415 
38 1 0.104644 0 0.0033885 0.0276971 0 -0.706018 9.77764e-05 0 -0.0027121 0 10.7668 0 0.001415 
39 1 0.10747 0 0.00353131 0.0292407 0 -0.736569 0.000103214 0 -0.00282944 0 10.8489 0 0.001415 
40 1 0.110297 0 0.00367491 0.0308042 0 -0.76734 0.000108722 0 -0.00294763 0 10.9228 0 0.001415 
41 1 0.113123 0 0.00381921 0.0323855 0 -0.798309 0.00011429 0 -0.00306658 0 10.9889 0 0.001415 
42 1 0.115949 0 0.00396412 0.0339824 0 -0.829453 0.000119913 0 -0.0031862 0 11.0476 0 0.001415 
43 1 0.118775 0 0.00410955 0.0355931 0 -0.860752 0.000125584 0 -0.00330641 0 11.0991 0 0.001415 
44 1 0.121602 0 0.00425543 0.0372157 0 -0.892187 0.000131296 0 -0.00342715 0 11.144 0 0.001415 
45 1 0.124428 0 0.00440168 0.0388486 0 -0.92374 0.000137044 0 -0.00354834 0 11.1826 0 0.001415 
46 1 0.127254 0 0.00454824 0.04049 0 -0.955393 0.000142821 0 -0.00366992 0 11.2153 0 0.001415 
47 1 0.13008 0 0.00469503 0.0421386 0 -0.987131 0.000148623 0 -0.00379181 0 11.2426 0 0.001415 
48 1 0.132907 0 0.00484203 0.043793 0 -1.01894 0.000154444 0 -0.00391398 0 11.2649 0 0.001415 
49 1 0.135733 0 0.00498916 0.045452 0 -1.0508 0.000160282 0 -0.00403636 0 11.2827 0 0.001415 
50 1 0.138559 0 0.00513641 0.0471145 0 -1.08271 0.000166131 0 -0.00415891 0 11.2964 0 0.001415 
51 1 0.141385 0 0.00528373 0.0487795 0 -1.11465 0.000171989 0 -0.00428159 0 11.3066 0 0.001415 
52 1 0.144211 0 0.00543111 0.0504465 0 -1.14662 0.000177854 0 -0.00440437 0 11.3137 0 0.001415 
53 1 0.147037 0 0.00557852 0.0521147 0 -1.1786 0.000183723 0 -0.0045272 0 11.3183 0 0.001415 
54 1 0.149864 0 0.00572595 0.0537837 0 -1.21059 0.000189595 0 -0.00465008 0 11.321 0 0.001415 
55 1 0.15269 0 0.00587341 0.0554532 0 -1.24259 0.000195467 0 -0.00477297 0 11.3221 0 0.001415 
56 1 0.155516 0 0.00602088 0.0571229 0 -1.27459 0.000201342 0 -0.00489587 0 11.3224 0 0.001415 
