ITEM: TIMESTEP
12000000
ITEM: NUMBER OF ATOMS
56
ITEM: BOX BOUNDS ff ff ff
-0.1 0.171215
-0.171215 0.171215
-0.171215 0.171215
ITEM: ATOMS id type x y z vx vy vz fx fy fz omegax omegay omegaz radius 
55 1 0.152689 0 -0.00583186 0.0981422 0 2.19226 0.000146437 0 0.00449033 0 -19.973 0 0.001415 
56 1 0.155515 0 -0.00598586 0.101218 0 2.2487 0.000151059 0 0.00460591 0 -19.9735 0 0.001415 
42 1 0.115952 0 -0.00384905 0.0588062 0 1.46353 8.73927e-05 0 0.00299803 0 -19.4893 0 0.001415 
43 1 0.118778 0 -0.00399848 0.0617257 0 1.51874 9.17665e-05 0 0.0031111 0 -19.5801 0 0.001415 
44 1 0.121604 0 -0.00414875 0.0646743 0 1.57419 9.61867e-05 0 0.00322466 0 -19.6592 0 0.001415 
45 1 0.12443 0 -0.00429975 0.0676485 0 1.62985 0.000100646 0 0.00333863 0 -19.7272 0 0.001415 
46 1 0.127256 0 -0.0044514 0.0706448 0 1.68568 0.000105141 0 0.00345297 0 -19.7849 0 0.001415 
47 1 0.130082 0 -0.0046036 0.07366 0 1.74167 0.000109666 0 0.00356762 0 -19.833 0 0.001415 
48 1 0.132908 0 -0.00475626 0.076691 0 1.79777 0.000114215 0 0.00368251 0 -19.8723 0 0.001415 
49 1 0.135734 0 -0.00490931 0.0797351 0 1.85398 0.000118786 0 0.0037976 0 -19.9036 0 0.001415 
50 1 0.13856 0 -0.00506267 0.0827896 0 1.91026 0.000123373 0 0.00391285 0 -19.9278 0 0.001415 
51 1 0.141386 0 -0.00521626 0.085852 0 1.9666 0.000127973 0 0.00402823 0 -19.9457 0 0.001415 
52 1 0.144211 0 -0.00537003 0.0889202 0 2.02298 0.000132582 0 0.00414369 0 -19.9582 0 0.001415 
53 1 0.147037 0 -0.00552392 0.0919924 0 2.07939 0.000137197 0 0.00425921 0 -19.9664 0 0.001415 
54 1 0.149863 0 -0.00567788 0.0950668 0 2.13582 0.000141817 0 0.00437476 0 -19.9709 0 0.001415 
29 1 0.0792072 0 -0.00203427 0.0252554 0 0.785495 3.73141e-05 0 0.00160936 0 -16.9555 0 0.001415 
30 1 0.0820343 0 -0.00216224 0.0274449 0 0.83386 4.05686e-05 0 0.00170843 0 -17.2533 0 0.001415 
31 1 0.0848613 0 -0.00229262 0.0297132 0 0.883038 4.39428e-05 0 0.00180915 0 -17.5322 0 0.001415 
32 1 0.0876882 0 -0.00242528 0.032057 0 0.932976 4.7432e-05 0 0.00191144 0 -17.7928 0 0.001415 
33 1 0.090515 0 -0.00256009 0.0344726 0 0.983624 5.10302e-05 0 0.00201518 0 -18.0353 0 0.001415 
34 1 0.0933417 0 -0.00269692 0.0369563 0 1.03493 5.47322e-05 0 0.00212026 0 -18.2603 0 0.001415 
35 1 0.0961683 0 -0.00283563 0.0395043 0 1.08685 5.85329e-05 0 0.00222659 0 -18.4682 0 0.001415 
36 1 0.0989948 0 -0.00297611 0.0421125 0 1.13932 6.24257e-05 0 0.00233407 0 -18.6595 0 0.001415 
37 1 0.101821 0 -0.00311821 0.0447772 0 1.19232 6.64053e-05 0 0.00244261 0 -18.8347 0 0.001415 
38 1 0.104648 0 -0.00326183 0.0474942 0 1.24579 7.04651e-05 0 0.00255211 0 -18.9944 0 0.001415 
39 1 0.107474 0 -0.00340684 0.0502595 0 1.29968 7.46002e-05 0 0.00266248 0 -19.1391 0 0.001415 
40 1 0.1103 0 -0.00355312 0.0530693 0 1.35396 7.88032e-05 0 0.00277365 0 -19.2694 0 0.001415 
41 1 0.113126 0 -0.00370056 0.0559195 0 1.40859 8.30697e-05 0 0.00288552 0 -19.3859 0 0.001415 
1 1 5.39036e-16 0 -1.1772e-08 4.49197e-15 0 -9.81e-08 0 0 0 0 0 0 0.001415 
2 1 0.00283 0 -3.2581e-06 2.08383e-06 0 0.00129469 3.05248e-09 0 2.65434e-06 0 -0.907589 0 0.001415 
3 1 0.00565998 0 -1.288e-05 1.56895e-05 0 0.00512578 2.29026e-08 0 1.05082e-05 0 -1.79245 0 0.001415 
4 1 0.00848994 0 -2.87353e-05 5.15652e-05 0 0.0114288 7.52987e-08 0 2.3429e-05 0 -2.65459 0 0.001415 
5 1 0.0113199 0 -5.06819e-05 0.000119661 0 0.0201393 1.74785e-07 0 4.12842e-05 0 -3.49398 0 0.001415 
6 1 0.0141497 0 -7.85775e-05 0.00022915 0 0.0311929 3.34889e-07 0 6.39412e-05 0 -4.31064 0 0.001415 
7 1 0.0169795 0 -0.00011228 0.000388443 0 0.044525 5.67916e-07 0 9.12675e-05 0 -5.10457 0 0.001415 
8 1 0.0198092 0 -0.000151646 0.000605212 0 0.0600712 8.85126e-07 0 0.000123131 0 -5.87577 0 0.001415 
9 1 0.0226389 0 -0.000196534 0.00088641 0 0.0777671 1.29698e-06 0 0.000159398 0 -6.62428 0 0.001415 
10 1 0.0254684 0 -0.000246802 0.00123829 0 0.0975482 1.81267e-06 0 0.000199938 0 -7.3501 0 0.001415 
11 1 0.0282979 0 -0.000302306 0.00166641 0 0.11935 2.44042e-06 0 0.000244618 0 -8.05329 0 0.001415 
12 1 0.0311272 0 -0.000362903 0.0021757 0 0.143109 3.18783e-06 0 0.000293306 0 -8.73387 0 0.001415 
13 1 0.0339565 0 -0.000428452 0.00277043 0 0.168761 4.06101e-06 0 0.000345871 0 -9.39192 0 0.001415 
14 1 0.0367856 0 -0.000498809 0.00345423 0 0.196241 5.06586e-06 0 0.000402181 0 -10.0275 0 0.001415 
15 1 0.0396146 0 -0.000573831 0.00423019 0 0.225487 6.20681e-06 0 0.000462107 0 -10.6407 0 0.001415 
16 1 0.0424435 0 -0.000653376 0.00510077 0 0.256434 7.48771e-06 0 0.000525518 0 -11.2316 0 0.001415 
17 1 0.0452723 0 -0.000737301 0.00606791 0 0.28902 8.9118e-06 0 0.000592285 0 -11.8002 0 0.001415 
18 1 0.0481009 0 -0.000825462 0.007133 0 0.323182 1.04813e-05 0 0.000662279 0 -12.3469 0 0.001415 
19 1 0.0509294 0 -0.000917718 0.00829695 0 0.358857 1.21976e-05 0 0.000735371 0 -12.8716 0 0.001415 
20 1 0.0537577 0 -0.00101393 0.00956016 0 0.395984 1.40617e-05 0 0.000811436 0 -13.3745 0 0.001415 
21 1 0.056586 0 -0.00111394 0.0109226 0 0.4345 1.60736e-05 0 0.000890346 0 -13.8558 0 0.001415 
22 1 0.0594141 0 -0.00121763 0.0123837 0 0.474346 1.8233e-05 0 0.000971977 0 -14.3157 0 0.001415 
23 1 0.062242 0 -0.00132484 0.0139427 0 0.515461 2.05384e-05 0 0.00105621 0 -14.7544 0 0.001415 
24 1 0.0650699 0 -0.00143543 0.0155983 0 0.557784 2.29888e-05 0 0.00114291 0 -15.1722 0 0.001415 
25 1 0.0678976 0 -0.00154927 0.0173487 0 0.601257 2.55813e-05 0 0.00123196 0 -15.5692 0 0.001415 
26 1 0.0707252 0 -0.00166622 0.0191921 0 0.645822 2.83136e-05 0 0.00132325 0 -15.9457 0 0.001415 
27 1 0.0735526 0 -0.00178612 0.0211261 0 0.691421 3.11823e-05 0 0.00141666 0 -16.3021 0 0.001415 
28 1 0.07638 0 -0.00190885 0.0231481 0 0.737997 3.41838e-05 0 0.00151207 0 -16.6386 0 0.001415 
