ITEM: TIMESTEP
1800000
ITEM: NUMBER OF ATOMS
56
ITEM: BOX BOUNDS ff ff ff
-0.1 0.171215
-0.171215 0.171215
-0.171215 0.171215
ITEM: ATOMS id type x y z vx vy vz fx fy fz omegax omegay omegaz radius 
56 1 0.154943 0 -0.0135101 0.02333 0 0.0293099 5.65365e-05 0 3.82206e-05 0 -6.99817 0 0.001415 
51 1 0.140911 0 -0.0116833 0.0105954 0 -0.068441 3.69005e-05 0 -0.000120479 0 -6.8348 0 0.001415 
52 1 0.143718 0 -0.0120481 0.0131095 0 -0.0491183 4.08521e-05 0 -8.85404e-05 0 -6.92455 0 0.001415 
53 1 0.146524 0 -0.0124133 0.0156536 0 -0.0295937 4.47837e-05 0 -5.676e-05 0 -6.97891 0 0.001415 
54 1 0.14933 0 -0.0127789 0.018213 0 -0.00996674 4.87045e-05 0 -2.50746e-05 0 -6.99752 0 0.001415 
55 1 0.152137 0 -0.0131445 0.0207715 0 0.00967115 5.26213e-05 0 6.57881e-06 0 -6.99802 0 0.001415 
46 1 0.126877 0 -0.00987753 -0.00102922 0 -0.158652 1.67308e-05 0 -0.000284001 0 -5.8802 0 0.001415 
47 1 0.129685 0 -0.0102354 0.00112532 0 -0.141773 2.08207e-05 0 -0.000250732 0 -6.1353 0 0.001415 
48 1 0.132492 0 -0.0105952 0.00337769 0 -0.124223 2.48859e-05 0 -0.000217741 0 -6.35946 0 0.001415 
49 1 0.135298 0 -0.0109566 0.00571562 0 -0.106089 2.89203e-05 0 -0.000185044 0 -6.55145 0 0.001415 
50 1 0.138105 0 -0.0113194 0.00812609 0 -0.0874634 3.29253e-05 0 -0.000152633 0 -6.71019 0 0.001415 
40 1 0.110027 0 -0.00778618 -0.011334 0 -0.241379 -7.64065e-06 0 -0.000485213 0 -3.78974 0 0.001415 
41 1 0.112836 0 -0.00812674 -0.00996996 0 -0.230153 -3.69256e-06 0 -0.000452118 0 -4.19545 0 0.001415 
42 1 0.115645 0 -0.00847086 -0.00845554 0 -0.217817 3.31899e-07 0 -0.000418631 0 -4.58097 0 0.001415 
43 1 0.118454 0 -0.00881827 -0.00679654 0 -0.204431 4.40698e-06 0 -0.000384934 0 -4.94416 0 0.001415 
44 1 0.121262 0 -0.0091687 -0.0050001 0 -0.19006 8.51078e-06 0 -0.000351184 0 -5.28299 0 0.001415 
45 1 0.12407 0 -0.00952188 -0.00307452 0 -0.174775 1.26237e-05 0 -0.000317508 0 -5.59558 0 0.001415 
34 1 0.0931595 0 -0.00583249 -0.0161976 0 -0.28287 -2.8031e-05 0 -0.000662106 0 -1.06727 0 0.001415 
35 1 0.095972 0 -0.0061461 -0.0157847 0 -0.279199 -2.51856e-05 0 -0.000636574 0 -1.54231 0 0.001415 
36 1 0.098784 0 -0.00646486 -0.0152144 0 -0.274198 -2.2076e-05 0 -0.000609071 0 -2.01245 0 0.001415 
37 1 0.101595 0 -0.00678852 -0.0144843 0 -0.267886 -1.87339e-05 0 -0.0005799 0 -2.47492 0 0.001415 
38 1 0.104406 0 -0.0071168 -0.0135937 0 -0.260289 -1.51925e-05 0 -0.000549351 0 -2.92701 0 0.001415 
39 1 0.107217 0 -0.00744944 -0.0125429 0 -0.25144 -1.14838e-05 0 -0.000517703 0 -3.36612 0 0.001415 
28 1 0.076271 0 -0.0040736 -0.0156561 0 -0.276971 -3.80737e-05 0 -0.000757138 0 1.72346 0 0.001415 
29 1 0.0790873 0 -0.00435085 -0.0160694 0 -0.281208 -3.73366e-05 0 -0.000749632 0 1.28019 0 0.001415 
30 1 0.081903 0 -0.0046348 -0.0163651 0 -0.284176 -3.62058e-05 0 -0.000738446 0 0.824218 0 0.001415 
31 1 0.0847181 0 -0.0049252 -0.0165336 0 -0.285844 -3.46918e-05 0 -0.000723824 0 0.358511 0 0.001415 
32 1 0.0875325 0 -0.00522178 -0.0165665 0 -0.286191 -3.28101e-05 0 -0.000706033 0 -0.113946 0 0.001415 
33 1 0.0903463 0 -0.0055243 -0.0164565 0 -0.285202 -3.05819e-05 0 -0.00068536 0 -0.590187 0 0.001415 
19 1 0.0508929 0 -0.00192072 -0.00855472 0 -0.190967 -2.83254e-05 0 -0.000638117 0 4.66572 0 0.001415 
20 1 0.0537154 0 -0.00212657 -0.00949198 0 -0.20387 -3.05809e-05 0 -0.000667976 0 4.46455 0 0.001415 
21 1 0.0565372 0 -0.00234132 -0.0104226 0 -0.216149 -3.26257e-05 0 -0.000693928 0 4.22599 0 0.001415 
22 1 0.0593584 0 -0.00256473 -0.0113337 0 -0.227701 -3.44166e-05 0 -0.000715775 0 3.95243 0 0.001415 
23 1 0.0621788 0 -0.00279657 -0.0122119 0 -0.238432 -3.59152e-05 0 -0.000733381 0 3.6464 0 0.001415 
24 1 0.0649986 0 -0.00303659 -0.0130442 0 -0.248254 -3.70883e-05 0 -0.000746671 0 3.3105 0 0.001415 
25 1 0.0678177 0 -0.00328454 -0.0138173 0 -0.257087 -3.79085e-05 0 -0.000755629 0 2.94744 0 0.001415 
26 1 0.0706362 0 -0.0035402 -0.0145185 0 -0.264859 -3.83548e-05 0 -0.000760292 0 2.56001 0 0.001415 
27 1 0.0734539 0 -0.0038033 -0.0151354 0 -0.271506 -3.84128e-05 0 -0.00076075 0 2.15104 0 0.001415 
1 1 8.08552e-17 0 -1.76579e-09 4.49197e-15 0 -9.81e-08 0 0 0 0 0 0 0.001415 
2 1 0.00282998 0 -6.56742e-06 7.00797e-07 0 -0.00104675 -2.51731e-09 0 -4.38992e-06 0 0.720797 0 0.001415 
3 1 0.00565991 0 -2.60862e-05 -1.68487e-05 0 -0.00405307 -8.46657e-08 0 -1.68457e-05 0 1.38498 0 0.001415 
4 1 0.00848972 0 -5.8342e-05 -6.83856e-05 0 -0.00885877 -3.11862e-07 0 -3.64893e-05 0 1.99264 0 0.001415 
5 1 0.0113194 0 -0.000103118 -0.000167075 0 -0.0153038 -7.35285e-07 0 -6.24448e-05 0 2.54389 0 0.001415 
6 1 0.0141488 0 -0.000160195 -0.00032359 0 -0.0232284 -1.39227e-06 0 -9.38417e-05 0 3.03894 0 0.001415 
7 1 0.0169779 0 -0.000229355 -0.000546198 0 -0.0324736 -2.30705e-06 0 -0.000129819 0 3.47808 0 0.001415 
8 1 0.0198067 0 -0.000310379 -0.000840851 0 -0.0428812 -3.49146e-06 0 -0.000169527 0 3.8617 0 0.001415 
9 1 0.0226352 0 -0.000403045 -0.00121128 0 -0.0542946 -4.94584e-06 0 -0.000212137 0 4.19031 0 0.001415 
10 1 0.0254633 0 -0.000507132 -0.00165912 0 -0.0665584 -6.66006e-06 0 -0.00025684 0 4.46455 0 0.001415 
11 1 0.0282909 0 -0.000622417 -0.00218399 0 -0.0795198 -8.61426e-06 0 -0.000302858 0 4.68522 0 0.001415 
12 1 0.0311181 0 -0.000748676 -0.00278364 0 -0.0930279 -1.07804e-05 0 -0.000349445 0 4.85324 0 0.001415 
13 1 0.0339448 0 -0.000885685 -0.00345408 0 -0.106935 -1.3123e-05 0 -0.000395894 0 4.96968 0 0.001415 
14 1 0.0367709 0 -0.00103322 -0.00418969 0 -0.121097 -1.5601e-05 0 -0.000441541 0 5.0358 0 0.001415 
15 1 0.0395965 0 -0.00119105 -0.00498341 0 -0.135373 -1.81682e-05 0 -0.00048577 0 5.05298 0 0.001415 
16 1 0.0424215 0 -0.00135894 -0.00582682 0 -0.149627 -2.07759e-05 0 -0.00052802 0 5.02278 0 0.001415 
17 1 0.0452459 0 -0.00153667 -0.00671037 0 -0.163728 -2.33724e-05 0 -0.000567783 0 4.94691 0 0.001415 
18 1 0.0480697 0 -0.00172401 -0.00762348 0 -0.177548 -2.5906e-05 0 -0.000604611 0 4.82722 0 0.001415 
