ITEM: TIMESTEP
8000000
ITEM: NUMBER OF ATOMS
56
ITEM: BOX BOUNDS ff ff ff
-0.1 0.171215
-0.171215 0.171215
-0.171215 0.171215
ITEM: ATOMS id type x y z vx vy vz fx fy fz omegax omegay omegaz radius 
1 1 3.59357e-16 0 -7.84799e-09 4.49197e-15 0 -9.81e-08 0 0 0 0 0 0 0.001415 
2 1 0.00283 0 4.30155e-06 -3.93917e-06 0 0.00187277 4.54859e-09 0 -3.37649e-06 0 -1.31304 0 0.001415 
3 1 0.00565997 0 1.70362e-05 -2.99329e-05 0 0.00741518 3.46017e-08 0 -1.33671e-05 0 -2.59336 0 0.001415 
4 1 0.00848989 0 3.79617e-05 -9.83837e-05 0 0.0165344 1.13726e-07 0 -2.98035e-05 0 -3.84093 0 0.001415 
5 1 0.0113197 0 6.68436e-05 -0.000228 0 0.0291374 2.6339e-07 0 -5.25176e-05 0 -5.05575 0 0.001415 
6 1 0.0141495 0 0.000103447 -0.000435844 0 0.0451314 5.03213e-07 0 -8.1341e-05 0 -6.2378 0 0.001415 
7 1 0.0169792 0 0.000147539 -0.000737376 0 0.0644232 8.50803e-07 0 -0.000116106 0 -7.3871 0 0.001415 
8 1 0.0198087 0 0.000198885 -0.0011465 0 0.0869198 1.32203e-06 0 -0.000156644 0 -8.50364 0 0.001415 
9 1 0.0226381 0 0.000257251 -0.00167563 0 0.112528 1.93091e-06 0 -0.000202787 0 -9.58745 0 0.001415 
10 1 0.0254673 0 0.000322405 -0.00233571 0 0.141155 2.68979e-06 0 -0.000254367 0 -10.6386 0 0.001415 
11 1 0.0282964 0 0.000394113 -0.00313629 0 0.172708 3.60932e-06 0 -0.000311218 0 -11.657 0 0.001415 
12 1 0.0311254 0 0.000472145 -0.00408557 0 0.207094 4.69861e-06 0 -0.000373171 0 -12.6429 0 0.001415 
13 1 0.0339541 0 0.00055627 -0.00519045 0 0.244221 5.96519e-06 0 -0.000440061 0 -13.5962 0 0.001415 
14 1 0.0367827 0 0.000646258 -0.00645659 0 0.283996 7.41537e-06 0 -0.000511721 0 -14.5171 0 0.001415 
15 1 0.0396111 0 0.000741881 -0.00788846 0 0.326327 9.05357e-06 0 -0.000587985 0 -15.4057 0 0.001415 
16 1 0.0424393 0 0.000842912 -0.00948939 0 0.371123 1.08834e-05 0 -0.000668688 0 -16.2621 0 0.001415 
17 1 0.0452673 0 0.000949127 -0.0112617 0 0.418293 1.29071e-05 0 -0.000753666 0 -17.0865 0 0.001415 
18 1 0.0480951 0 0.0010603 -0.0132066 0 0.467745 1.51255e-05 0 -0.000842757 0 -17.879 0 0.001415 
19 1 0.0509227 0 0.00117622 -0.0153243 0 0.519391 1.75387e-05 0 -0.000935797 0 -18.6399 0 0.001415 
20 1 0.0537501 0 0.00129666 -0.0176144 0 0.573139 2.01455e-05 0 -0.00103263 0 -19.3692 0 0.001415 
21 1 0.0565774 0 0.0014214 -0.0200753 0 0.628902 2.29438e-05 0 -0.00113308 0 -20.0674 0 0.001415 
22 1 0.0594045 0 0.00155023 -0.0227049 0 0.686591 2.59306e-05 0 -0.00123701 0 -20.7347 0 0.001415 
23 1 0.0622313 0 0.00168295 -0.0255002 0 0.746119 2.91024e-05 0 -0.00134425 0 -21.3712 0 0.001415 
24 1 0.0650581 0 0.00181934 -0.0284576 0 0.8074 3.24545e-05 0 -0.00145465 0 -21.9775 0 0.001415 
25 1 0.0678846 0 0.00195921 -0.0315729 0 0.870348 3.59818e-05 0 -0.00156805 0 -22.5538 0 0.001415 
26 1 0.070711 0 0.00210234 -0.0348415 0 0.93488 3.96784e-05 0 -0.00168431 0 -23.1005 0 0.001415 
27 1 0.0735372 0 0.00224856 -0.0382581 0 1.00091 4.35387e-05 0 -0.00180326 0 -23.618 0 0.001415 
28 1 0.0763633 0 0.00239765 -0.0418171 0 1.06836 4.7555e-05 0 -0.00192477 0 -24.1067 0 0.001415 
29 1 0.0791892 0 0.00254945 -0.0455125 0 1.13715 5.17213e-05 0 -0.00204869 0 -24.5672 0 0.001415 
30 1 0.082015 0 0.00270376 -0.0493381 0 1.20719 5.60293e-05 0 -0.00217488 0 -24.9999 0 0.001415 
31 1 0.0848406 0 0.00286041 -0.0532872 0 1.27842 6.04718e-05 0 -0.0023032 0 -25.4053 0 0.001415 
32 1 0.0876662 0 0.00301923 -0.0573532 0 1.35075 6.5041e-05 0 -0.0024335 0 -25.7841 0 0.001415 
33 1 0.0904916 0 0.00318005 -0.061529 0 1.42411 6.97291e-05 0 -0.00256566 0 -26.1367 0 0.001415 
34 1 0.0933169 0 0.0033427 -0.0658079 0 1.49843 7.45274e-05 0 -0.00269955 0 -26.4639 0 0.001415 
35 1 0.0961422 0 0.00350703 -0.0701826 0 1.57363 7.94286e-05 0 -0.00283503 0 -26.7664 0 0.001415 
36 1 0.0989673 0 0.00367289 -0.0746462 0 1.64966 8.44244e-05 0 -0.00297199 0 -27.0447 0 0.001415 
37 1 0.101792 0 0.00384014 -0.0791916 0 1.72643 8.95071e-05 0 -0.0031103 0 -27.2997 0 0.001415 
38 1 0.104617 0 0.00400863 -0.083812 0 1.80389 9.46686e-05 0 -0.00324984 0 -27.5322 0 0.001415 
39 1 0.107442 0 0.00417824 -0.0885005 0 1.88197 9.99016e-05 0 -0.00339051 0 -27.7429 0 0.001415 
40 1 0.110267 0 0.00434884 -0.0932506 0 1.96062 0.000105199 0 -0.00353219 0 -27.9326 0 0.001415 
41 1 0.113092 0 0.00452032 -0.0980557 0 2.03977 0.000110553 0 -0.00367478 0 -28.1024 0 0.001415 
42 1 0.115917 0 0.00469256 -0.10291 0 2.11938 0.000115957 0 -0.00381819 0 -28.253 0 0.001415 
43 1 0.118741 0 0.00486546 -0.107807 0 2.19938 0.000121405 0 -0.00396231 0 -28.3854 0 0.001415 
44 1 0.121566 0 0.00503892 -0.112741 0 2.27973 0.000126891 0 -0.00410706 0 -28.5007 0 0.001415 
45 1 0.124391 0 0.00521285 -0.117708 0 2.36038 0.000132409 0 -0.00425235 0 -28.5999 0 0.001415 
46 1 0.127215 0 0.00538718 -0.122702 0 2.44129 0.000137954 0 -0.00439811 0 -28.684 0 0.001415 
47 1 0.13004 0 0.00556182 -0.127718 0 2.52242 0.00014352 0 -0.00454426 0 -28.7542 0 0.001415 
48 1 0.132865 0 0.00573672 -0.132752 0 2.60372 0.000149105 0 -0.00469072 0 -28.8115 0 0.001415 
49 1 0.135689 0 0.00591181 -0.137802 0 2.68517 0.000154703 0 -0.00483745 0 -28.8572 0 0.001415 
50 1 0.138514 0 0.00608705 -0.142862 0 2.76673 0.000160312 0 -0.00498439 0 -28.8926 0 0.001415 
51 1 0.141338 0 0.0062624 -0.147931 0 2.84838 0.000165928 0 -0.00513148 0 -28.9188 0 0.001415 
52 1 0.144163 0 0.00643782 -0.153006 0 2.9301 0.00017155 0 -0.00527868 0 -28.9371 0 0.001415 
53 1 0.146987 0 0.00661328 -0.158085 0 3.01185 0.000177176 0 -0.00542595 0 -28.949 0 0.001415 
54 1 0.149812 0 0.00678879 -0.163166 0 3.09363 0.000182804 0 -0.00557327 0 -28.9557 0 0.001415 
55 1 0.152636 0 0.00696432 -0.168249 0 3.17542 0.000188433 0 -0.00572062 0 -28.9587 0 0.001415 
56 1 0.155461 0 0.00713986 -0.173333 0 3.25722 0.000194064 0 -0.00586797 0 -28.9595 0 0.001415 
