ITEM: TIMESTEP
2300000
ITEM: NUMBER OF ATOMS
56
ITEM: BOX BOUNDS ff ff ff
-0.1 0.171215
-0.171215 0.171215
-0.171215 0.171215
ITEM: ATOMS id type x y z vx vy vz fx fy fz omegax omegay omegaz radius 
56 1 0.154943 0 -0.0135108 -0.00778871 0 -0.0099459 7.43334e-05 0 9.54774e-05 0 2.36203 0 0.001415 
51 1 0.140911 0 -0.011682 -0.00348669 0 0.0230406 3.31841e-05 0 -0.000220922 0 2.30516 0 0.001415 
52 1 0.143718 0 -0.0120471 -0.00433563 0 0.0165226 4.13055e-05 0 -0.0001584 0 2.33635 0 0.001415 
53 1 0.146524 0 -0.0124128 -0.00519502 0 0.00993436 4.95259e-05 0 -9.52055e-05 0 2.35526 0 0.001415 
54 1 0.14933 0 -0.0127788 -0.00605972 0 0.00331049 5.77973e-05 0 -3.16702e-05 0 2.36177 0 0.001415 
55 1 0.152136 0 -0.0131448 -0.0069242 0 -0.00331753 6.60649e-05 0 3.1902e-05 0 2.36197 0 0.001415 
46 1 0.126877 0 -0.00987443 0.000430429 0 0.0534103 -4.29968e-06 0 -0.000512281 0 1.97447 0 0.001415 
47 1 0.129685 0 -0.0102326 -0.000294053 0 0.0477392 2.6358e-06 0 -0.000457866 0 2.06268 0 0.001415 
48 1 0.132492 0 -0.0105927 -0.00105234 0 0.0418358 9.89286e-06 0 -0.000401226 0 2.14029 0 0.001415 
49 1 0.135298 0 -0.0109545 -0.00184024 0 0.0357303 1.74324e-05 0 -0.000342652 0 2.20683 0 0.001415 
50 1 0.138105 0 -0.0113177 -0.00265326 0 0.0294543 2.52112e-05 0 -0.000282446 0 2.2619 0 0.001415 
40 1 0.110027 0 -0.00778176 0.00387479 0 0.0810444 -3.72988e-05 0 -0.000777562 0 1.25566 0 0.001415 
41 1 0.112836 0 -0.00812247 0.00342197 0 0.077319 -3.29564e-05 0 -0.00074178 0 1.39459 0 0.001415 
42 1 0.115645 0 -0.00846677 0.00291767 0 0.0732129 -2.81222e-05 0 -0.000702351 0 1.52686 0 0.001415 
43 1 0.118454 0 -0.00881439 0.0023638 0 0.068746 -2.28148e-05 0 -0.000659467 0 1.6517 0 0.001415 
44 1 0.121262 0 -0.00916505 0.00176272 0 0.0639403 -1.70567e-05 0 -0.000613337 0 1.76837 0 0.001415 
45 1 0.12407 0 -0.00951849 0.0011172 0 0.0588198 -1.08747e-05 0 -0.000564193 0 1.87617 0 0.001415 
34 1 0.0931598 0 -0.00582787 0.00546255 0 0.0945849 -5.25553e-05 0 -0.000907794 0 0.33094 0 0.001415 
35 1 0.0959724 0 -0.00614144 0.00533251 0 0.0934284 -5.1301e-05 0 -0.000896637 0 0.491312 0 0.001415 
36 1 0.0987843 0 -0.00646019 0.00514938 0 0.0918225 -4.95382e-05 0 -0.000881171 0 0.650451 0 0.001415 
37 1 0.101596 0 -0.00678386 0.00491225 0 0.0897721 -4.72579e-05 0 -0.000861443 0 0.807391 0 0.001415 
38 1 0.104407 0 -0.00711219 0.00462067 0 0.087285 -4.44571e-05 0 -0.000837529 0 0.961183 0 0.001415 
39 1 0.107217 0 -0.00744492 0.00427468 0 0.0843715 -4.11355e-05 0 -0.000809527 0 1.1109 0 0.001415 
28 1 0.0762712 0 -0.00406971 0.00523344 0 0.0921538 -5.03954e-05 0 -0.000884815 0 -0.601758 0 0.001415 
29 1 0.0790876 0 -0.00434679 0.00537889 0 0.093644 -5.17865e-05 0 -0.000899061 0 -0.454796 0 0.001415 
30 1 0.0819033 0 -0.00463059 0.00548549 0 0.094713 -5.28035e-05 0 -0.000909263 0 -0.303119 0 0.001415 
31 1 0.0847184 0 -0.00492085 0.00554993 0 0.0953491 -5.3415e-05 0 -0.000915308 0 -0.147711 0 0.001415 
32 1 0.0875328 0 -0.00521732 0.00556926 0 0.0955434 -5.35937e-05 0 -0.000917111 0 0.0104336 0 0.001415 
33 1 0.0903466 0 -0.00551974 0.00554087 0 0.0952898 -5.33141e-05 0 -0.000914617 0 0.170316 0 0.001415 
19 1 0.050893 0 -0.00191871 0.002829 0 0.0630441 -2.72964e-05 0 -0.000605697 0 -1.55913 0 0.001415 
20 1 0.0537155 0 -0.00212435 0.00314232 0 0.0673607 -3.03123e-05 0 -0.000647125 0 -1.49552 0 0.001415 
21 1 0.0565373 0 -0.00233888 0.00345422 0 0.0714788 -3.33134e-05 0 -0.00068664 0 -1.41938 0 0.001415 
22 1 0.0593585 0 -0.00256207 0.00376042 0 0.0753642 -3.6258e-05 0 -0.000723913 0 -1.33143 0 0.001415 
23 1 0.062179 0 -0.00279369 0.00405655 0 0.0789847 -3.91044e-05 0 -0.000758636 0 -1.23246 0 0.001415 
24 1 0.0649988 0 -0.00303349 0.0043382 0 0.0823104 -4.18098e-05 0 -0.000790524 0 -1.12326 0 0.001415 
25 1 0.0678179 0 -0.00328124 0.00460097 0 0.0853139 -4.43328e-05 0 -0.000819313 0 -1.00471 0 0.001415 
26 1 0.0706364 0 -0.00353669 0.00484054 0 0.0879702 -4.66309e-05 0 -0.000844764 0 -0.877657 0 0.001415 
27 1 0.0734541 0 -0.00379959 0.00505272 0 0.0902568 -4.86651e-05 0 -0.000866661 0 -0.74303 0 0.001415 
1 1 1.03315e-16 0 -2.25629e-09 4.49197e-15 0 -9.81e-08 0 0 0 0 0 0 0.001415 
2 1 0.00282998 0 -6.56194e-06 -1.87115e-07 0 0.00034101 2.28816e-09 0 -3.28434e-06 0 -0.235425 0 0.001415 
3 1 0.00565991 0 -2.60631e-05 5.58266e-06 0 0.00132264 -5.31477e-08 0 -1.27267e-05 0 -0.452682 0 0.001415 
4 1 0.00848972 0 -5.82891e-05 2.24589e-05 0 0.00289334 -2.16176e-07 0 -2.78318e-05 0 -0.651796 0 0.001415 
5 1 0.0113194 0 -0.000103023 5.47633e-05 0 0.00500174 -5.28479e-07 0 -4.81048e-05 0 -0.832804 0 0.001415 
6 1 0.0141488 0 -0.000160045 0.000106016 0 0.00759657 -1.02421e-06 0 -7.30521e-05 0 -0.995763 0 0.001415 
7 1 0.0169779 0 -0.000229138 0.00017896 0 0.0106267 -1.72962e-06 0 -0.000102182 0 -1.14076 0 0.001415 
8 1 0.0198068 0 -0.000310081 0.000275595 0 0.0140414 -2.66395e-06 0 -0.000135005 0 -1.26789 0 0.001415 
9 1 0.0226352 0 -0.000402653 0.000397201 0 0.0177902 -3.83956e-06 0 -0.000171035 0 -1.37732 0 0.001415 
10 1 0.0254633 0 -0.000506633 0.000544378 0 0.021823 -5.26176e-06 0 -0.000209792 0 -1.46922 0 0.001415 
11 1 0.028291 0 -0.000621797 0.000717074 0 0.0260905 -6.93019e-06 0 -0.0002508 0 -1.54381 0 0.001415 
12 1 0.0311181 0 -0.000747923 0.000914631 0 0.0305439 -8.83816e-06 0 -0.00029359 0 -1.60137 0 0.001415 
13 1 0.0339448 0 -0.000884785 0.00113581 0 0.0351355 -1.09735e-05 0 -0.000337702 0 -1.64219 0 0.001415 
14 1 0.036771 0 -0.00103216 0.00137886 0 0.0398183 -1.3319e-05 0 -0.000382685 0 -1.66664 0 0.001415 
15 1 0.0395966 0 -0.00118982 0.00164153 0 0.0445466 -1.5853e-05 0 -0.000428098 0 -1.67512 0 0.001415 
16 1 0.0424216 0 -0.00135753 0.00192113 0 0.0492756 -1.85491e-05 0 -0.000473513 0 -1.66809 0 0.001415 
17 1 0.045246 0 -0.00153507 0.00221457 0 0.0539624 -2.13777e-05 0 -0.000518516 0 -1.64603 0 0.001415 
18 1 0.0480698 0 -0.00172221 0.00251844 0 0.0585652 -2.43052e-05 0 -0.000562705 0 -1.60952 0 0.001415 
