ITEM: TIMESTEP
5500000
ITEM: NUMBER OF ATOMS
56
ITEM: BOX BOUNDS ff ff ff
-0.1 0.171215
-0.171215 0.171215
-0.171215 0.171215
ITEM: ATOMS id type x y z vx vy vz fx fy fz omegax omegay omegaz radius 
1 1 2.47058e-16 0 -5.39549e-09 4.49197e-15 0 -9.81e-08 0 0 0 0 0 0 0.001415 
2 1 0.00282999 0 6.03042e-06 -2.02011e-07 0 7.50907e-05 1.4114e-08 0 -4.8502e-06 0 -0.0525559 0 0.001415 
3 1 0.00565994 0 2.38735e-05 -1.63338e-06 0 0.000295874 1.08133e-07 0 -1.91887e-05 0 -0.102897 0 0.001415 
4 1 0.00848978 0 5.32033e-05 -5.40262e-06 0 0.000655971 3.55876e-07 0 -4.27581e-05 0 -0.151021 0 0.001415 
5 1 0.0113195 0 9.36988e-05 -1.24945e-05 0 0.00114909 8.24851e-07 0 -7.53003e-05 0 -0.19693 0 0.001415 
6 1 0.014149 0 0.000145039 -2.37743e-05 0 0.00176895 1.57652e-06 0 -0.000116557 0 -0.240625 0 0.001415 
7 1 0.0169783 0 0.000206904 -3.99924e-05 0 0.00250927 2.66631e-06 0 -0.000166269 0 -0.282114 0 0.001415 
8 1 0.0198074 0 0.000278973 -6.17892e-05 0 0.00336378 4.14425e-06 0 -0.000224177 0 -0.321403 0 0.001415 
9 1 0.0226362 0 0.000360925 -8.96995e-05 0 0.00432625 6.05422e-06 0 -0.000290023 0 -0.358507 0 0.001415 
10 1 0.0254648 0 0.000452441 -0.000124158 0 0.0053905 8.43542e-06 0 -0.000363549 0 -0.393442 0 0.001415 
11 1 0.028293 0 0.000553202 -0.000165505 0 0.00655039 1.13213e-05 0 -0.000444495 0 -0.426229 0 0.001415 
12 1 0.0311208 0 0.00066289 -0.000213992 0 0.00779984 1.47409e-05 0 -0.000532606 0 -0.456894 0 0.001415 
13 1 0.0339484 0 0.00078119 -0.000269784 0 0.00913288 1.87178e-05 0 -0.000627624 0 -0.485468 0 0.001415 
14 1 0.0367755 0 0.000907784 -0.000332973 0 0.0105436 2.32719e-05 0 -0.000729295 0 -0.511986 0 0.001415 
15 1 0.0396023 0 0.00104236 -0.000403576 0 0.0120262 2.84181e-05 0 -0.000837365 0 -0.53649 0 0.001415 
16 1 0.0424288 0 0.00118461 -0.000481544 0 0.0135751 3.41672e-05 0 -0.000951582 0 -0.559024 0 0.001415 
17 1 0.0452548 0 0.00133421 -0.000566772 0 0.0151848 4.05268e-05 0 -0.0010717 0 -0.57964 0 0.001415 
18 1 0.0480805 0 0.00149087 -0.000659098 0 0.0168498 4.75002e-05 0 -0.00119746 0 -0.598393 0 0.001415 
19 1 0.0509057 0 0.00165428 -0.000758316 0 0.018565 5.50871e-05 0 -0.00132863 0 -0.615343 0 0.001415 
20 1 0.0537306 0 0.00182414 -0.000864177 0 0.0203254 6.32849e-05 0 -0.00146496 0 -0.630555 0 0.001415 
21 1 0.0565552 0 0.00200014 -0.000976398 0 0.0221261 7.20871e-05 0 -0.00160621 0 -0.644099 0 0.001415 
22 1 0.0593793 0 0.002182 -0.00109467 0 0.0239625 8.1485e-05 0 -0.00175216 0 -0.656046 0 0.001415 
23 1 0.0622031 0 0.00236943 -0.00121865 0 0.0258303 9.14671e-05 0 -0.00190255 0 -0.666473 0 0.001415 
24 1 0.0650265 0 0.00256213 -0.00134799 0 0.0277252 0.00010202 0 -0.00205717 0 -0.675461 0 0.001415 
25 1 0.0678496 0 0.00275982 -0.00148232 0 0.0296433 0.000113128 0 -0.00221579 0 -0.683092 0 0.001415 
26 1 0.0706724 0 0.00296224 -0.00162127 0 0.0315808 0.000124773 0 -0.00237819 0 -0.68945 0 0.001415 
27 1 0.0734948 0 0.0031691 -0.00176446 0 0.0335344 0.000136936 0 -0.00254416 0 -0.694624 0 0.001415 
28 1 0.0763169 0 0.00338013 -0.00191151 0 0.0355008 0.000149597 0 -0.00271347 0 -0.6987 0 0.001415 
29 1 0.0791387 0 0.00359509 -0.00206206 0 0.037477 0.000162734 0 -0.00288593 0 -0.701769 0 0.001415 
30 1 0.0819603 0 0.00381371 -0.00221575 0 0.0394604 0.000176324 0 -0.00306134 0 -0.703921 0 0.001415 
31 1 0.0847816 0 0.00403574 -0.00237221 0 0.0414484 0.000190343 0 -0.00323949 0 -0.705245 0 0.001415 
32 1 0.0876026 0 0.00426094 -0.00253112 0 0.0434389 0.000204768 0 -0.0034202 0 -0.705831 0 0.001415 
33 1 0.0904234 0 0.00448907 -0.00269216 0 0.04543 0.000219574 0 -0.00360328 0 -0.705766 0 0.001415 
34 1 0.0932439 0 0.00471991 -0.00285503 0 0.0474199 0.000234737 0 -0.00378855 0 -0.705139 0 0.001415 
35 1 0.0960643 0 0.00495324 -0.00301944 0 0.0494071 0.00025023 0 -0.00397585 0 -0.704032 0 0.001415 
36 1 0.0988845 0 0.00518884 -0.00318514 0 0.0513905 0.00026603 0 -0.00416499 0 -0.702527 0 0.001415 
37 1 0.101704 0 0.00542651 -0.0033519 0 0.0533691 0.000282113 0 -0.00435582 0 -0.700705 0 0.001415 
38 1 0.104524 0 0.00566604 -0.00351951 0 0.0553421 0.000298453 0 -0.00454819 0 -0.698638 0 0.001415 
39 1 0.107344 0 0.00590726 -0.00368777 0 0.0573088 0.000315028 0 -0.00474195 0 -0.696399 0 0.001415 
40 1 0.110164 0 0.00614998 -0.00385652 0 0.059269 0.000331814 0 -0.00493696 0 -0.694054 0 0.001415 
41 1 0.112983 0 0.00639403 -0.00402561 0 0.0612224 0.000348789 0 -0.00513308 0 -0.691663 0 0.001415 
42 1 0.115802 0 0.00663926 -0.00419493 0 0.0631689 0.000365932 0 -0.00533019 0 -0.689284 0 0.001415 
43 1 0.118622 0 0.0068855 -0.00436437 0 0.0651088 0.000383223 0 -0.00552817 0 -0.686967 0 0.001415 
44 1 0.121441 0 0.00713262 -0.00453386 0 0.0670423 0.000400641 0 -0.0057269 0 -0.684755 0 0.001415 
45 1 0.12426 0 0.00738048 -0.00470332 0 0.0689696 0.00041817 0 -0.00592628 0 -0.682688 0 0.001415 
46 1 0.127079 0 0.00762897 -0.00487272 0 0.0708913 0.000435793 0 -0.00612621 0 -0.680795 0 0.001415 
47 1 0.129898 0 0.00787798 -0.00504202 0 0.072808 0.000453492 0 -0.0063266 0 -0.679102 0 0.001415 
48 1 0.132717 0 0.0081274 -0.00521121 0 0.0747201 0.000471255 0 -0.00652738 0 -0.677625 0 0.001415 
49 1 0.135536 0 0.00837714 -0.00538028 0 0.0766284 0.000489068 0 -0.00672846 0 -0.676374 0 0.001415 
50 1 0.138355 0 0.00862714 -0.00554923 0 0.0785334 0.00050692 0 -0.00692977 0 -0.675353 0 0.001415 
51 1 0.141174 0 0.00887732 -0.00571809 0 0.0804359 0.000524802 0 -0.00713127 0 -0.674555 0 0.001415 
52 1 0.143993 0 0.00912762 -0.00588685 0 0.0823365 0.000542703 0 -0.0073329 0 -0.673968 0 0.001415 
53 1 0.146812 0 0.00937802 -0.00605555 0 0.0842357 0.00056062 0 -0.00753461 0 -0.673571 0 0.001415 
54 1 0.149631 0 0.00962847 -0.00622422 0 0.086134 0.000578544 0 -0.00773637 0 -0.673336 0 0.001415 
55 1 0.152449 0 0.00987896 -0.00639286 0 0.0880318 0.000596474 0 -0.00793817 0 -0.673226 0 0.001415 
56 1 0.155268 0 0.0101295 -0.0065615 0 0.0899295 0.000614405 0 -0.00813997 0 -0.673197 0 0.001415 
