ITEM: TIMESTEP
11900000
ITEM: NUMBER OF ATOMS
56
ITEM: BOX BOUNDS ff ff ff
-0.1 0.171215
-0.171215 0.171215
-0.171215 0.171215
ITEM: ATOMS id type x y z vx vy vz fx fy fz omegax omegay omegaz radius 
52 1 0.144188 0 -0.00587636 -0.0510399 0 -1.06129 0.000207304 0 0.00459434 0 10.4771 0 0.001415 
53 1 0.147013 0 -0.00604436 -0.0528006 0 -1.0909 0.000214464 0 0.0047225 0 10.4814 0 0.001415 
54 1 0.149838 0 -0.00621244 -0.0545625 0 -1.12051 0.000221629 0 0.0048507 0 10.4838 0 0.001415 
55 1 0.152663 0 -0.00638055 -0.0563251 0 -1.15013 0.000228797 0 0.00497891 0 10.4849 0 0.001415 
56 1 0.155488 0 -0.00654867 -0.0580878 0 -1.17975 0.000235965 0 0.00510714 0 10.4851 0 0.001415 
40 1 0.110286 0 -0.00389201 -0.0304868 0 -0.710208 0.000123743 0 0.00307452 0 10.114 0 0.001415 
41 1 0.113112 0 -0.00405312 -0.0321215 0 -0.738874 0.000130387 0 0.00319861 0 10.1754 0 0.001415 
42 1 0.115937 0 -0.00421536 -0.033777 0 -0.767703 0.000137116 0 0.00332341 0 10.2298 0 0.001415 
43 1 0.118762 0 -0.00437861 -0.0354512 0 -0.796675 0.000143921 0 0.00344883 0 10.2777 0 0.001415 
44 1 0.121587 0 -0.00454275 -0.0371419 0 -0.825774 0.000150794 0 0.0035748 0 10.3194 0 0.001415 
45 1 0.124413 0 -0.00470769 -0.0388471 0 -0.854981 0.000157726 0 0.00370124 0 10.3552 0 0.001415 
46 1 0.127238 0 -0.00487331 -0.0405648 0 -0.884282 0.00016471 0 0.00382808 0 10.3856 0 0.001415 
47 1 0.130063 0 -0.00503952 -0.0422933 0 -0.91366 0.000171738 0 0.00395525 0 10.411 0 0.001415 
48 1 0.132888 0 -0.00520622 -0.0440307 0 -0.943103 0.000178802 0 0.00408271 0 10.4317 0 0.001415 
49 1 0.135713 0 -0.00537333 -0.0457756 0 -0.972599 0.000185897 0 0.00421039 0 10.4482 0 0.001415 
50 1 0.138538 0 -0.00554078 -0.0475262 0 -1.00213 0.000193016 0 0.00433826 0 10.461 0 0.001415 
51 1 0.141363 0 -0.00570847 -0.0492814 0 -1.0317 0.000200153 0 0.00446625 0 10.4704 0 0.001415 
27 1 0.0735471 0 -0.00195919 -0.0121509 0 -0.362599 4.92723e-05 0 0.00156973 0 8.55318 0 0.001415 
28 1 0.0763739 0 -0.00209357 -0.0133126 0 -0.387032 5.39869e-05 0 0.0016755 0 8.73004 0 0.001415 
29 1 0.0792006 0 -0.00223088 -0.0145231 0 -0.411949 5.89008e-05 0 0.00178337 0 8.89666 0 0.001415 
30 1 0.0820271 0 -0.00237095 -0.0157806 0 -0.437322 6.40057e-05 0 0.0018932 0 9.05321 0 0.001415 
31 1 0.0848535 0 -0.00251365 -0.0170832 0 -0.463121 6.92945e-05 0 0.00200489 0 9.19989 0 0.001415 
32 1 0.0876798 0 -0.00265881 -0.018429 0 -0.489321 7.47592e-05 0 0.00211831 0 9.33691 0 0.001415 
33 1 0.0905059 0 -0.00280629 -0.0198158 0 -0.515893 8.03907e-05 0 0.00223334 0 9.46449 0 0.001415 
34 1 0.093332 0 -0.00295596 -0.0212415 0 -0.542811 8.61816e-05 0 0.00234986 0 9.58285 0 0.001415 
35 1 0.0961579 0 -0.00310767 -0.0227039 0 -0.57005 9.21212e-05 0 0.00246778 0 9.69224 0 0.001415 
36 1 0.0989837 0 -0.00326127 -0.0242008 0 -0.597585 9.8202e-05 0 0.00258698 0 9.79291 0 0.001415 
37 1 0.101809 0 -0.00341664 -0.0257298 0 -0.625391 0.000104414 0 0.00270735 0 9.88514 0 0.001415 
38 1 0.104635 0 -0.00357364 -0.0272887 0 -0.653445 0.000110748 0 0.0028288 0 9.96919 0 0.001415 
39 1 0.107461 0 -0.00373214 -0.0288751 0 -0.681725 0.000117194 0 0.00295122 0 10.0454 0 0.001415 
1 1 5.34544e-16 0 -1.16739e-08 4.49197e-15 0 -9.81e-08 0 0 0 0 0 0 0.001415 
2 1 0.00283 0 -3.58218e-06 -1.20403e-06 0 -0.000678607 4.87522e-09 0 2.93818e-06 0 0.475732 0 0.001415 
3 1 0.00565998 0 -1.41631e-05 -9.04917e-06 0 -0.00268662 3.66184e-08 0 1.16325e-05 0 0.939589 0 0.001415 
4 1 0.00848992 0 -3.15962e-05 -2.97289e-05 0 -0.00599049 1.20359e-07 0 2.5937e-05 0 1.39156 0 0.001415 
5 1 0.0113198 0 -5.57232e-05 -6.89749e-05 0 -0.0105565 2.79241e-07 0 4.57057e-05 0 1.83165 0 0.001415 
6 1 0.0141497 0 -8.63857e-05 -0.000132068 0 -0.016351 5.34712e-07 0 7.07928e-05 0 2.25986 0 0.001415 
7 1 0.0169794 0 -0.000123425 -0.00022385 0 -0.0233403 9.0638e-07 0 0.000101052 0 2.67618 0 0.001415 
8 1 0.0198091 0 -0.000166683 -0.000348734 0 -0.0314905 1.41209e-06 0 0.000136337 0 3.08062 0 0.001415 
9 1 0.0226386 0 -0.000216001 -0.000510716 0 -0.0407681 2.06818e-06 0 0.000176502 0 3.47318 0 0.001415 
10 1 0.0254681 0 -0.00027122 -0.000713386 0 -0.0511393 2.88906e-06 0 0.000221402 0 3.85389 0 0.001415 
11 1 0.0282975 0 -0.000332181 -0.000959944 0 -0.0625704 3.88791e-06 0 0.00027089 0 4.22275 0 0.001415 
12 1 0.0311267 0 -0.000398726 -0.0012532 0 -0.0750278 5.07592e-06 0 0.000324821 0 4.57979 0 0.001415 
13 1 0.0339558 0 -0.000470695 -0.00159561 0 -0.0884781 6.46333e-06 0 0.000383049 0 4.92504 0 0.001415 
14 1 0.0367847 0 -0.000547931 -0.00198926 0 -0.102888 8.0584e-06 0 0.000445431 0 5.25853 0 0.001415 
15 1 0.0396135 0 -0.000630273 -0.0024359 0 -0.118224 9.86847e-06 0 0.000511821 0 5.58031 0 0.001415 
16 1 0.0424422 0 -0.000717564 -0.00293693 0 -0.134452 1.18991e-05 0 0.000582076 0 5.89041 0 0.001415 
17 1 0.0452707 0 -0.000809645 -0.00349345 0 -0.15154 1.4155e-05 0 0.000656053 0 6.1889 0 0.001415 
18 1 0.048099 0 -0.000906358 -0.00410625 0 -0.169456 1.66392e-05 0 0.000733609 0 6.47584 0 0.001415 
19 1 0.0509272 0 -0.00100754 -0.00477584 0 -0.188165 1.9354e-05 0 0.000814604 0 6.75129 0 0.001415 
20 1 0.0537552 0 -0.00111304 -0.00550242 0 -0.207637 2.23002e-05 0 0.000898897 0 7.01535 0 0.001415 
21 1 0.0565831 0 -0.0012227 -0.00628595 0 -0.227838 2.54778e-05 0 0.000986347 0 7.2681 0 0.001415 
22 1 0.0594108 0 -0.00133636 -0.00712614 0 -0.248736 2.88853e-05 0 0.00107682 0 7.50963 0 0.001415 
23 1 0.0622384 0 -0.00145386 -0.00802246 0 -0.270301 3.25211e-05 0 0.00117017 0 7.74005 0 0.001415 
24 1 0.0650658 0 -0.00157505 -0.00897414 0 -0.2925 3.63818e-05 0 0.00126627 0 7.95949 0 0.001415 
25 1 0.067893 0 -0.00169977 -0.00998024 0 -0.315304 4.04639e-05 0 0.00136499 0 8.16806 0 0.001415 
26 1 0.0707201 0 -0.00182787 -0.0110396 0 -0.33868 4.47622e-05 0 0.00146618 0 8.36591 0 0.001415 
