ITEM: TIMESTEP
5900000
ITEM: NUMBER OF ATOMS
56
ITEM: BOX BOUNDS ff ff ff
-0.1 0.171215
-0.171215 0.171215
-0.171215 0.171215
ITEM: ATOMS id type x y z vx vy vz fx fy fz omegax omegay omegaz radius 
49 1 0.135552 0 -0.00810894 -0.0950286 0 -1.33583 0.000431014 0 0.00639278 0 14.4819 0 0.001415 
50 1 0.13837 0 -0.00835941 -0.0986586 0 -1.37668 0.000447427 0 0.00658745 0 14.5009 0 0.001415 
51 1 0.141189 0 -0.00861022 -0.102298 0 -1.41758 0.000463879 0 0.00678233 0 14.515 0 0.001415 
52 1 0.144008 0 -0.00886129 -0.105943 0 -1.45851 0.000480362 0 0.00697736 0 14.525 0 0.001415 
53 1 0.146827 0 -0.00911252 -0.109593 0 -1.49947 0.000496864 0 0.0071725 0 14.5314 0 0.001415 
54 1 0.149646 0 -0.00936385 -0.113246 0 -1.54043 0.000513378 0 0.00736769 0 14.5351 0 0.001415 
55 1 0.152465 0 -0.00961521 -0.1169 0 -1.58141 0.000529897 0 0.00756292 0 14.5367 0 0.001415 
56 1 0.155283 0 -0.0098666 -0.120555 0 -1.62238 0.000546418 0 0.00775816 0 14.5371 0 0.001415 
41 1 0.112998 0 -0.00613165 -0.0667039 0 -1.01279 0.000302902 0 0.00485276 0 14.0795 0 0.001415 
42 1 0.115818 0 -0.00637494 -0.0701396 0 -1.0526 0.000318448 0 0.00504266 0 14.1593 0 0.001415 
43 1 0.118637 0 -0.00661965 -0.0736135 0 -1.09263 0.000334165 0 0.00523352 0 14.2297 0 0.001415 
44 1 0.121456 0 -0.0068656 -0.0771214 0 -1.13283 0.000350033 0 0.00542523 0 14.291 0 0.001415 
45 1 0.124275 0 -0.00711264 -0.0806589 0 -1.1732 0.000366033 0 0.00561768 0 14.3439 0 0.001415 
46 1 0.127095 0 -0.00736063 -0.0842221 0 -1.21371 0.000382149 0 0.00581075 0 14.3889 0 0.001415 
47 1 0.129914 0 -0.00760943 -0.0878071 0 -1.25432 0.000398361 0 0.00600435 0 14.4265 0 0.001415 
48 1 0.132733 0 -0.0078589 -0.0914104 0 -1.29504 0.000414654 0 0.00619839 0 14.4573 0 0.001415 
32 1 0.0876145 0 -0.00403565 -0.0382749 0 -0.668767 0.00017413 0 0.00321013 0 12.8671 0 0.001415 
33 1 0.0904358 0 -0.00425786 -0.0411551 0 -0.705332 0.000187191 0 0.00338491 0 13.05 0 0.001415 
34 1 0.0932568 0 -0.00448322 -0.044116 0 -0.742392 0.000200612 0 0.00356201 0 13.2202 0 0.001415 
35 1 0.0960776 0 -0.00471152 -0.0471529 0 -0.779911 0.000214375 0 0.00374124 0 13.3779 0 0.001415 
36 1 0.0988981 0 -0.00494255 -0.0502611 0 -0.817855 0.000228457 0 0.00392246 0 13.5233 0 0.001415 
37 1 0.101718 0 -0.00517611 -0.0534358 0 -0.856189 0.000242837 0 0.00410549 0 13.6569 0 0.001415 
38 1 0.104539 0 -0.00541199 -0.0566722 0 -0.894881 0.000257493 0 0.00429018 0 13.7789 0 0.001415 
39 1 0.107359 0 -0.00565 -0.0599655 0 -0.933898 0.000272403 0 0.00447639 0 13.8897 0 0.001415 
40 1 0.110178 0 -0.00588995 -0.063311 0 -0.97321 0.000287546 0 0.00466396 0 13.9898 0 0.001415 
22 1 0.0593855 0 -0.00203648 -0.0147973 0 -0.338673 6.74915e-05 0 0.00162942 0 10.2832 0 0.001415 
23 1 0.0622099 0 -0.00221465 -0.016659 0 -0.368179 7.59627e-05 0 0.00177096 0 10.606 0 0.001415 
24 1 0.065034 0 -0.0023983 -0.0186358 0 -0.398573 8.4954e-05 0 0.0019167 0 10.9141 0 0.001415 
25 1 0.0678576 0 -0.00258716 -0.0207257 0 -0.429812 9.4456e-05 0 0.00206643 0 11.2076 0 0.001415 
26 1 0.070681 0 -0.00278102 -0.0229262 0 -0.461855 0.000104457 0 0.00221996 0 11.4867 0 0.001415 
27 1 0.073504 0 -0.00297962 -0.0252345 0 -0.494662 0.000114945 0 0.0023771 0 11.7514 0 0.001415 
28 1 0.0763267 0 -0.00318273 -0.0276476 0 -0.528193 0.000125905 0 0.00253764 0 12.0021 0 0.001415 
29 1 0.0791491 0 -0.00339012 -0.030162 0 -0.562408 0.000137321 0 0.00270141 0 12.2388 0 0.001415 
30 1 0.0819712 0 -0.00360156 -0.032774 0 -0.597267 0.000149176 0 0.0028682 0 12.4617 0 0.001415 
31 1 0.084793 0 -0.00381681 -0.0354797 0 -0.632733 0.000161452 0 0.00303783 0 12.671 0 0.001415 
1 1 2.65026e-16 0 -5.78789e-09 4.49197e-15 0 -9.81e-08 0 0 0 0 0 0 0.001415 
2 1 0.00282999 0 -5.48762e-06 -2.5065e-06 0 -0.000916528 1.14382e-08 0 4.43077e-06 0 0.642807 0 0.001415 
3 1 0.00565995 0 -2.17242e-05 -1.87874e-05 0 -0.00363044 8.6011e-08 0 1.75459e-05 0 1.27033 0 0.001415 
4 1 0.00848982 0 -4.84622e-05 -6.16926e-05 0 -0.00809843 2.82551e-07 0 3.91299e-05 0 1.88255 0 0.001415 
5 1 0.0113196 0 -8.54483e-05 -0.000143118 0 -0.014277 6.55543e-07 0 6.8967e-05 0 2.47944 0 0.001415 
6 1 0.0141492 0 -0.000132429 -0.000274028 0 -0.0221225 1.25501e-06 0 0.000106841 0 3.061 0 0.001415 
7 1 0.0169786 0 -0.00018915 -0.000464478 0 -0.0315913 2.12679e-06 0 0.000152535 0 3.62722 0 0.001415 
8 1 0.0198078 0 -0.000255357 -0.000723636 0 -0.0426397 3.31279e-06 0 0.000205833 0 4.17807 0 0.001415 
9 1 0.0226368 0 -0.000330798 -0.00105981 0 -0.0552238 4.85056e-06 0 0.000266518 0 4.71356 0 0.001415 
10 1 0.0254656 0 -0.000415217 -0.00148046 0 -0.0692997 6.77418e-06 0 0.000334373 0 5.23369 0 0.001415 
11 1 0.028294 0 -0.000508362 -0.00199224 0 -0.0848238 9.11359e-06 0 0.000409181 0 5.73845 0 0.001415 
12 1 0.0311222 0 -0.000609977 -0.00260101 0 -0.101752 1.18954e-05 0 0.000490725 0 6.22786 0 0.001415 
13 1 0.0339501 0 -0.00071981 -0.00331186 0 -0.120041 1.51424e-05 0 0.00057879 0 6.70192 0 0.001415 
14 1 0.0367776 0 -0.000837608 -0.00412915 0 -0.139646 1.88741e-05 0 0.000673159 0 7.16066 0 0.001415 
15 1 0.0396048 0 -0.000963117 -0.0050565 0 -0.160525 2.31068e-05 0 0.000773618 0 7.60408 0 0.001415 
16 1 0.0424317 0 -0.00109609 -0.00609687 0 -0.182632 2.78535e-05 0 0.000879951 0 8.03224 0 0.001415 
17 1 0.0452582 0 -0.00123626 -0.00725253 0 -0.205926 3.31241e-05 0 0.000991945 0 8.44516 0 0.001415 
18 1 0.0480844 0 -0.00138339 -0.00852514 0 -0.230362 3.8926e-05 0 0.00110939 0 8.84289 0 0.001415 
19 1 0.0509102 0 -0.00153723 -0.00991573 0 -0.255898 4.52631e-05 0 0.00123207 0 9.22549 0 0.001415 
20 1 0.0537357 0 -0.00169752 -0.0114248 0 -0.28249 5.21373e-05 0 0.00135977 0 9.59302 0 0.001415 
21 1 0.0565608 0 -0.00186402 -0.0130522 0 -0.310096 5.95479e-05 0 0.00149229 0 9.94555 0 0.001415 
