ITEM: TIMESTEP
5800000
ITEM: NUMBER OF ATOMS
56
ITEM: BOX BOUNDS ff ff ff
-0.1 0.171215
-0.171215 0.171215
-0.171215 0.171215
ITEM: ATOMS id type x y z vx vy vz fx fy fz omegax omegay omegaz radius 
45 1 0.124434 0 -0.00422155 -0.177623 0 -4.35894 -0.0001316 0 0.00340871 0 52.7282 0 0.001415 
46 1 0.12726 0 -0.00437053 -0.18549 0 -4.50818 -0.000137045 0 0.00352782 0 52.8817 0 0.001415 
47 1 0.130086 0 -0.00452006 -0.193408 0 -4.65782 -0.00014251 0 0.00364731 0 53.0097 0 0.001415 
48 1 0.132912 0 -0.00467004 -0.201367 0 -4.80779 -0.000147991 0 0.00376711 0 53.1143 0 0.001415 
49 1 0.135738 0 -0.00482041 -0.209361 0 -4.95802 -0.000153483 0 0.00388716 0 53.1977 0 0.001415 
50 1 0.138564 0 -0.00497108 -0.217382 0 -5.10845 -0.000158986 0 0.0040074 0 53.2621 0 0.001415 
51 1 0.14139 0 -0.00512198 -0.225423 0 -5.25904 -0.000164495 0 0.0041278 0 53.3099 0 0.001415 
52 1 0.144216 0 -0.00527306 -0.233481 0 -5.40975 -0.000170009 0 0.0042483 0 53.3433 0 0.001415 
53 1 0.147042 0 -0.00542426 -0.241548 0 -5.56053 -0.000175526 0 0.00436888 0 53.3649 0 0.001415 
54 1 0.149868 0 -0.00557552 -0.249621 0 -5.71136 -0.000181046 0 0.0044895 0 53.3771 0 0.001415 
55 1 0.152694 0 -0.00572681 -0.257697 0 -5.86221 -0.000186567 0 0.00461015 0 53.3826 0 0.001415 
56 1 0.155519 0 -0.00587811 -0.265774 0 -6.01307 -0.000192088 0 0.0047308 0 53.384 0 0.001415 
30 1 0.0820356 0 -0.00212212 -0.0720614 0 -2.23094 -5.62226e-05 0 0.00172187 0 46.1344 0 0.001415 
31 1 0.0848627 0 -0.00225014 -0.078017 0 -2.36244 -6.0636e-05 0 0.0018252 0 46.8783 0 0.001415 
32 1 0.0876897 0 -0.00238041 -0.0841707 0 -2.49597 -6.51702e-05 0 0.00193028 0 47.5731 0 0.001415 
33 1 0.0905166 0 -0.00251279 -0.090513 0 -2.63139 -6.98172e-05 0 0.002037 0 48.2198 0 0.001415 
34 1 0.0933434 0 -0.00264716 -0.0970341 0 -2.76856 -7.45689e-05 0 0.00214526 0 48.8196 0 0.001415 
35 1 0.0961702 0 -0.00278339 -0.103724 0 -2.90737 -7.94178e-05 0 0.00225494 0 49.3738 0 0.001415 
36 1 0.0989968 0 -0.00292135 -0.110572 0 -3.04767 -8.43554e-05 0 0.00236595 0 49.8837 0 0.001415 
37 1 0.101823 0 -0.00306092 -0.117569 0 -3.18935 -8.93741e-05 0 0.00247818 0 50.3507 0 0.001415 
38 1 0.10465 0 -0.00320198 -0.124702 0 -3.33228 -9.44668e-05 0 0.00259153 0 50.7761 0 0.001415 
39 1 0.107476 0 -0.00334441 -0.131963 0 -3.47636 -9.96258e-05 0 0.00270591 0 51.1616 0 0.001415 
40 1 0.110303 0 -0.0034881 -0.139341 0 -3.62147 -0.000104844 0 0.00282122 0 51.5088 0 0.001415 
41 1 0.113129 0 -0.00363293 -0.146825 0 -3.7675 -0.000110115 0 0.00293738 0 51.8191 0 0.001415 
42 1 0.115955 0 -0.00377879 -0.154404 0 -3.91436 -0.000115431 0 0.00305429 0 52.0944 0 0.001415 
43 1 0.118781 0 -0.00392559 -0.16207 0 -4.06195 -0.000120788 0 0.00317186 0 52.3365 0 0.001415 
44 1 0.121607 0 -0.0040732 -0.169813 0 -4.21017 -0.00012618 0 0.00329003 0 52.5471 0 0.001415 
1 1 2.60534e-16 0 -5.68979e-09 4.49197e-15 0 -9.81e-08 0 0 0 0 0 0 0.001415 
2 1 0.00283 0 -3.19005e-06 -5.50441e-06 0 -0.00346748 -4.50171e-09 0 2.60493e-06 0 2.43064 0 0.001415 
3 1 0.00565998 0 -1.26279e-05 -4.12735e-05 0 -0.013727 -3.50772e-08 0 1.0321e-05 0 4.80013 0 0.001415 
4 1 0.00848994 0 -2.81802e-05 -0.000135537 0 -0.0306054 -1.15598e-07 0 2.30294e-05 0 7.10847 0 0.001415 
5 1 0.0113199 0 -4.97078e-05 -0.000314426 0 -0.0539295 -2.68099e-07 0 4.06119e-05 0 9.35565 0 0.001415 
6 1 0.0141497 0 -7.70714e-05 -0.000602025 0 -0.0835259 -5.12258e-07 0 6.29503e-05 0 11.5417 0 0.001415 
7 1 0.0169795 0 -0.000110132 -0.00102042 0 -0.119221 -8.66081e-07 0 8.9927e-05 0 13.6666 0 0.001415 
8 1 0.0198093 0 -0.000148749 -0.00158975 0 -0.160842 -1.34543e-06 0 0.000121425 0 15.7304 0 0.001415 
9 1 0.0226389 0 -0.000192785 -0.00232827 0 -0.208215 -1.9644e-06 0 0.000157326 0 17.7332 0 0.001415 
10 1 0.0254685 0 -0.000242099 -0.00325238 0 -0.261168 -2.73529e-06 0 0.000197514 0 19.6751 0 0.001415 
11 1 0.028298 0 -0.000296553 -0.00437671 0 -0.319527 -3.66871e-06 0 0.000241871 0 21.5561 0 0.001415 
12 1 0.0311274 0 -0.000356005 -0.00571413 0 -0.38312 -4.77351e-06 0 0.000290281 0 23.3764 0 0.001415 
13 1 0.0339566 0 -0.000420318 -0.00727587 0 -0.451775 -6.05701e-06 0 0.000342627 0 25.1362 0 0.001415 
14 1 0.0367858 0 -0.00048935 -0.00907151 0 -0.525321 -7.52512e-06 0 0.000398793 0 26.8356 0 0.001415 
15 1 0.0396148 0 -0.000562963 -0.0111091 0 -0.603586 -9.18207e-06 0 0.000458661 0 28.4749 0 0.001415 
16 1 0.0424437 0 -0.000641017 -0.0133951 0 -0.686401 -1.10311e-05 0 0.000522115 0 30.0543 0 0.001415 
17 1 0.0452726 0 -0.000723372 -0.0159345 0 -0.773595 -1.30738e-05 0 0.000589038 0 31.5743 0 0.001415 
18 1 0.0481012 0 -0.000809888 -0.0187312 0 -0.865002 -1.53107e-05 0 0.000659314 0 33.035 0 0.001415 
19 1 0.0509298 0 -0.000900426 -0.0217874 0 -0.960452 -1.77414e-05 0 0.000732826 0 34.4369 0 0.001415 
20 1 0.0537582 0 -0.000994846 -0.0251041 0 -1.05978 -2.0364e-05 0 0.000809458 0 35.7804 0 0.001415 
21 1 0.0565865 0 -0.00109301 -0.0286814 0 -1.16282 -2.31763e-05 0 0.000889093 0 37.066 0 0.001415 
22 1 0.0594147 0 -0.00119478 -0.0325178 0 -1.26942 -2.61747e-05 0 0.000971615 0 38.2943 0 0.001415 
23 1 0.0622427 0 -0.00130001 -0.036611 0 -1.3794 -2.93549e-05 0 0.00105691 0 39.4657 0 0.001415 
24 1 0.0650706 0 -0.00140857 -0.0409577 0 -1.4926 -3.2712e-05 0 0.00114486 0 40.5809 0 0.001415 
25 1 0.0678984 0 -0.00152032 -0.0455536 0 -1.60888 -3.62404e-05 0 0.00123534 0 41.6407 0 0.001415 
26 1 0.0707261 0 -0.00163512 -0.0503934 0 -1.72807 -3.99341e-05 0 0.00132825 0 42.6457 0 0.001415 
27 1 0.0735537 0 -0.00175284 -0.0554712 0 -1.85003 -4.37861e-05 0 0.00142348 0 43.5967 0 0.001415 
28 1 0.0763811 0 -0.00187333 -0.0607801 0 -1.97459 -4.77901e-05 0 0.00152089 0 44.4945 0 0.001415 
29 1 0.0792084 0 -0.00199647 -0.0663129 0 -2.1016 -5.1938e-05 0 0.0016204 0 45.3401 0 0.001415 
