ITEM: TIMESTEP
6100000
ITEM: NUMBER OF ATOMS
56
ITEM: BOX BOUNDS ff ff ff
-0.1 0.171215
-0.171215 0.171215
-0.171215 0.171215
ITEM: ATOMS id type x y z vx vy vz fx fy fz omegax omegay omegaz radius 
39 1 0.107519 0 -0.00192488 0.0865151 0 3.94573 -0.000229879 0 0.00141845 0 -58.137 0 0.001415 
40 1 0.110347 0 -0.00200929 0.0914398 0 4.11077 -0.000242405 0 0.00147783 0 -58.5362 0 0.001415 
41 1 0.113176 0 -0.00209445 0.0964413 0 4.27687 -0.000255089 0 0.00153759 0 -58.8933 0 0.001415 
42 1 0.116005 0 -0.00218032 0.101513 0 4.44393 -0.000267914 0 0.00159771 0 -59.2103 0 0.001415 
43 1 0.118834 0 -0.00226681 0.106647 0 4.61183 -0.000280865 0 0.00165812 0 -59.4891 0 0.001415 
44 1 0.121662 0 -0.00235387 0.111837 0 4.78046 -0.000293925 0 0.00171881 0 -59.7318 0 0.001415 
45 1 0.124491 0 -0.00244144 0.117077 0 4.94973 -0.000307081 0 0.00177973 0 -59.9406 0 0.001415 
46 1 0.12732 0 -0.00252944 0.122361 0 5.11955 -0.000320318 0 0.00184084 0 -60.1177 0 0.001415 
47 1 0.130148 0 -0.00261783 0.127682 0 5.28982 -0.000333623 0 0.00190212 0 -60.2655 0 0.001415 
48 1 0.132977 0 -0.00270654 0.133034 0 5.46047 -0.000346985 0 0.00196354 0 -60.3863 0 0.001415 
49 1 0.135805 0 -0.00279553 0.138412 0 5.63142 -0.000360391 0 0.00202507 0 -60.4826 0 0.001415 
50 1 0.138634 0 -0.00288473 0.143811 0 5.80262 -0.000373835 0 0.00208669 0 -60.5571 0 0.001415 
51 1 0.141463 0 -0.00297411 0.149227 0 5.974 -0.000387304 0 0.00214837 0 -60.6123 0 0.001415 
52 1 0.144291 0 -0.00306362 0.154654 0 6.14551 -0.000400793 0 0.00221011 0 -60.6509 0 0.001415 
53 1 0.14712 0 -0.00315321 0.160089 0 6.3171 -0.000414295 0 0.00227187 0 -60.6759 0 0.001415 
54 1 0.149948 0 -0.00324285 0.165529 0 6.48875 -0.000427805 0 0.00233366 0 -60.6901 0 0.001415 
55 1 0.152777 0 -0.00333251 0.17097 0 6.66043 -0.000441319 0 0.00239545 0 -60.6964 0 0.001415 
56 1 0.155605 0 -0.00342217 0.176413 0 6.83212 -0.000454835 0 0.00245725 0 -60.698 0 0.001415 
1 1 2.7401e-16 0 -5.98409e-09 4.49197e-15 0 -9.81e-08 0 0 0 0 0 0 0.001415 
2 1 0.00283 0 -1.77531e-06 3.45415e-06 0 0.00392246 -1.00094e-08 0 1.41269e-06 0 -2.74975 0 0.001415 
3 1 0.00566 0 -7.02713e-06 2.5965e-05 0 0.0155296 -7.56251e-08 0 5.59143e-06 0 -5.43078 0 0.001415 
4 1 0.00848998 0 -1.56929e-05 8.53831e-05 0 0.0346267 -2.48406e-07 0 1.24644e-05 0 -8.0431 0 0.001415 
5 1 0.01132 0 -2.77039e-05 0.000198311 0 0.0610193 -5.7585e-07 0 2.19602e-05 0 -10.5867 0 0.001415 
6 1 0.0141499 0 -4.29917e-05 0.000380129 0 0.0945129 -1.10129e-06 0 3.40077e-05 0 -13.0617 0 0.001415 
7 1 0.0169799 0 -6.14874e-05 0.000645028 0 0.134913 -1.8644e-06 0 4.8536e-05 0 -15.468 0 0.001415 
8 1 0.0198098 0 -8.31223e-05 0.00100603 0 0.182026 -2.9008e-06 0 6.54748e-05 0 -17.8057 0 0.001415 
9 1 0.0226397 0 -0.000107827 0.00147503 0 0.235656 -4.24262e-06 0 8.47537e-05 0 -20.075 0 0.001415 
10 1 0.0254695 0 -0.000135533 0.0020628 0 0.295611 -5.91829e-06 0 0.000106303 0 -22.2758 0 0.001415 
11 1 0.0282994 0 -0.000166172 0.00277905 0 0.361697 -7.95298e-06 0 0.000130053 0 -24.4084 0 0.001415 
12 1 0.0311292 0 -0.000199672 0.00363242 0 0.43372 -1.03683e-05 0 0.000155934 0 -26.4728 0 0.001415 
13 1 0.0339589 0 -0.000235965 0.00463053 0 0.511488 -1.31829e-05 0 0.000183877 0 -28.4692 0 0.001415 
14 1 0.0367887 0 -0.000274982 0.00578002 0 0.594808 -1.64121e-05 0 0.000213813 0 -30.3979 0 0.001415 
15 1 0.0396184 0 -0.000316651 0.00708656 0 0.683489 -2.00684e-05 0 0.000245675 0 -32.259 0 0.001415 
16 1 0.042448 0 -0.000360902 0.00855487 0 0.77734 -2.41617e-05 0 0.000279393 0 -34.0529 0 0.001415 
17 1 0.0452776 0 -0.000407665 0.0101888 0 0.876171 -2.86986e-05 0 0.000314899 0 -35.7799 0 0.001415 
18 1 0.0481072 0 -0.000456868 0.0119913 0 0.979792 -3.3684e-05 0 0.000352128 0 -37.4404 0 0.001415 
19 1 0.0509367 0 -0.000508441 0.0139644 0 1.08802 -3.91194e-05 0 0.00039101 0 -39.0347 0 0.001415 
20 1 0.0537662 0 -0.000562311 0.0161095 0 1.20066 -4.5005e-05 0 0.000431481 0 -40.5633 0 0.001415 
21 1 0.0565957 0 -0.000618406 0.018427 0 1.31753 -5.1338e-05 0 0.000473473 0 -42.0267 0 0.001415 
22 1 0.0594251 0 -0.000676653 0.0209168 0 1.43845 -5.81141e-05 0 0.000516921 0 -43.4254 0 0.001415 
23 1 0.0622544 0 -0.000736981 0.023578 0 1.56323 -6.53271e-05 0 0.000561761 0 -44.7601 0 0.001415 
24 1 0.0650837 0 -0.000799315 0.0264088 0 1.6917 -7.29687e-05 0 0.000607927 0 -46.0315 0 0.001415 
25 1 0.067913 0 -0.000863583 0.0294071 0 1.82367 -8.10296e-05 0 0.000655357 0 -47.2402 0 0.001415 
26 1 0.0707422 0 -0.00092971 0.03257 0 1.95898 -8.94984e-05 0 0.000703987 0 -48.387 0 0.001415 
27 1 0.0735714 0 -0.000997623 0.0358941 0 2.09744 -9.83629e-05 0 0.000753754 0 -49.4728 0 0.001415 
28 1 0.0764006 0 -0.00106725 0.0393754 0 2.23888 -0.000107609 0 0.000804599 0 -50.4985 0 0.001415 
29 1 0.0792297 0 -0.00113851 0.0430096 0 2.38314 -0.000117223 0 0.000856459 0 -51.465 0 0.001415 
30 1 0.0820587 0 -0.00121134 0.0467916 0 2.53005 -0.000127189 0 0.000909277 0 -52.3733 0 0.001415 
31 1 0.0848878 0 -0.00128565 0.0507164 0 2.67945 -0.000137491 0 0.000962992 0 -53.2247 0 0.001415 
32 1 0.0877168 0 -0.00136138 0.0547781 0 2.83117 -0.000148111 0 0.00101755 0 -54.0201 0 0.001415 
33 1 0.0905457 0 -0.00143844 0.0589709 0 2.98506 -0.000159032 0 0.00107289 0 -54.7609 0 0.001415 
34 1 0.0933746 0 -0.00151678 0.0632885 0 3.14097 -0.000170237 0 0.00112896 0 -55.4484 0 0.001415 
35 1 0.0962035 0 -0.00159631 0.0677244 0 3.29875 -0.000181708 0 0.00118571 0 -56.084 0 0.001415 
36 1 0.0990324 0 -0.00167695 0.0722719 0 3.45825 -0.000193425 0 0.00124308 0 -56.6691 0 0.001415 
37 1 0.101861 0 -0.00175864 0.0769241 0 3.61934 -0.000205372 0 0.00130103 0 -57.2052 0 0.001415 
38 1 0.10469 0 -0.00184131 0.0816742 0 3.78188 -0.000217529 0 0.0013595 0 -57.6939 0 0.001415 
