ITEM: TIMESTEP
3200000
ITEM: NUMBER OF ATOMS
56
ITEM: BOX BOUNDS ff ff ff
-0.1 0.171215
-0.171215 0.171215
-0.171215 0.171215
ITEM: ATOMS id type x y z vx vy vz fx fy fz omegax omegay omegaz radius 
48 1 0.132937 0 -0.00398976 -0.230546 0 -6.52875 -0.000361623 0 0.00385749 0 65.5994 0 0.001415 
49 1 0.135764 0 -0.00412409 -0.239358 0 -6.71419 -0.000366499 0 0.00413544 0 65.6017 0 0.001415 
50 1 0.13859 0 -0.00425877 -0.248194 0 -6.89963 -0.000371221 0 0.00441593 0 65.6011 0 0.001415 
51 1 0.141417 0 -0.00439373 -0.257048 0 -7.08507 -0.000375819 0 0.0046984 0 65.5989 0 0.001415 
52 1 0.144244 0 -0.00452889 -0.265914 0 -7.27049 -0.000380327 0 0.00498233 0 65.5961 0 0.001415 
53 1 0.147071 0 -0.00466418 -0.274789 0 -7.45591 -0.000384771 0 0.00526728 0 65.5935 0 0.001415 
54 1 0.149897 0 -0.00479956 -0.283669 0 -7.64133 -0.000389175 0 0.00555285 0 65.5916 0 0.001415 
55 1 0.152724 0 -0.00493497 -0.292551 0 -7.82674 -0.000393561 0 0.00583876 0 65.5905 0 0.001415 
56 1 0.155551 0 -0.00507039 -0.301433 0 -8.01215 -0.000397939 0 0.00612478 0 65.5902 0 0.001415 
32 1 0.0877019 0 -0.00197044 -0.0993521 0 -3.59158 -0.00023883 0 0.00028852 0 63.0609 0 0.001415 
33 1 0.0905296 0 -0.00208504 -0.106606 0 -3.77054 -0.000249556 0 0.000438971 0 63.4974 0 0.001415 
34 1 0.0933572 0 -0.00220173 -0.11404 0 -3.95065 -0.000259897 0 0.000601336 0 63.8776 0 0.001415 
35 1 0.0961847 0 -0.0023204 -0.12164 0 -4.13175 -0.000269828 0 0.000775301 0 64.2059 0 0.001415 
36 1 0.0990121 0 -0.00244091 -0.129397 0 -4.31371 -0.000279332 0 0.000960489 0 64.4869 0 0.001415 
37 1 0.101839 0 -0.00256316 -0.137296 0 -4.49639 -0.000288396 0 0.00115646 0 64.7249 0 0.001415 
38 1 0.104667 0 -0.00268703 -0.145327 0 -4.67968 -0.000297015 0 0.00136274 0 64.9241 0 0.001415 
39 1 0.107494 0 -0.00281241 -0.153479 0 -4.86349 -0.000305191 0 0.00157877 0 65.0887 0 0.001415 
40 1 0.110321 0 -0.00293917 -0.161739 0 -5.0477 -0.000312931 0 0.00180399 0 65.2226 0 0.001415 
41 1 0.113148 0 -0.0030672 -0.170098 0 -5.23226 -0.000320248 0 0.00203777 0 65.3295 0 0.001415 
42 1 0.115975 0 -0.00319639 -0.178544 0 -5.41707 -0.00032716 0 0.00227946 0 65.4132 0 0.001415 
43 1 0.118802 0 -0.00332662 -0.187068 0 -5.6021 -0.000333689 0 0.00252839 0 65.4769 0 0.001415 
44 1 0.121629 0 -0.0034578 -0.195661 0 -5.78727 -0.000339863 0 0.00278387 0 65.5239 0 0.001415 
45 1 0.124456 0 -0.0035898 -0.204313 0 -5.97255 -0.00034571 0 0.00304522 0 65.5571 0 0.001415 
46 1 0.127283 0 -0.00372253 -0.213017 0 -6.15791 -0.000351263 0 0.00331172 0 65.5791 0 0.001415 
47 1 0.13011 0 -0.00385588 -0.221763 0 -6.34331 -0.000356555 0 0.00358271 0 65.5925 0 0.001415 
1 1 1.43743e-16 0 -3.13919e-09 4.49197e-15 0 -9.81e-08 0 0 0 0 0 0 0.001415 
2 1 0.00283 0 -2.43442e-06 -6.56431e-06 0 -0.0056466 -2.0778e-08 0 -5.13938e-06 0 3.94467 0 0.001415 
3 1 0.00565999 0 -9.66916e-06 -5.06824e-05 0 -0.0222599 -2.01583e-07 0 -1.95869e-05 0 7.75043 0 0.001415 
4 1 0.00848997 0 -2.16369e-05 -0.000167236 0 -0.0494468 -6.83271e-07 0 -4.21507e-05 0 11.4173 0 0.001415 
5 1 0.0113199 0 -3.82671e-05 -0.000388344 0 -0.0868142 -1.58693e-06 0 -7.16395e-05 0 14.9455 0 0.001415 
6 1 0.0141498 0 -5.94891e-05 -0.000743425 0 -0.133969 -3.0148e-06 0 -0.000106865 0 18.3351 0 0.001415 
7 1 0.0169797 0 -8.52319e-05 -0.00125926 0 -0.190521 -5.05086e-06 0 -0.000146643 0 21.5866 0 0.001415 
8 1 0.0198096 0 -0.000115424 -0.00196003 0 -0.256077 -7.76169e-06 0 -0.000189798 0 24.7004 0 0.001415 
9 1 0.0226394 0 -0.000149994 -0.00286744 0 -0.330249 -1.11974e-05 0 -0.000235165 0 27.6771 0 0.001415 
10 1 0.0254691 0 -0.00018887 -0.00400072 0 -0.41265 -1.53921e-05 0 -0.000281596 0 30.5176 0 0.001415 
11 1 0.0282988 0 -0.000231978 -0.00537673 0 -0.502896 -2.03653e-05 0 -0.00032796 0 33.2231 0 0.001415 
12 1 0.0311284 0 -0.000279245 -0.00701001 0 -0.600604 -2.61227e-05 0 -0.000373148 0 35.7947 0 0.001415 
13 1 0.0339579 0 -0.000330595 -0.00891289 0 -0.705399 -3.26569e-05 0 -0.000416082 0 38.2339 0 0.001415 
14 1 0.0367874 0 -0.000385953 -0.0110956 0 -0.816906 -3.99493e-05 0 -0.000455713 0 40.5424 0 0.001415 
15 1 0.0396167 0 -0.000445241 -0.0135661 0 -0.934759 -4.797e-05 0 -0.00049103 0 42.7223 0 0.001415 
16 1 0.042446 0 -0.000508379 -0.0163306 0 -1.0586 -5.66801e-05 0 -0.000521063 0 44.7758 0 0.001415 
17 1 0.0452753 0 -0.000575289 -0.0193933 0 -1.18806 -6.60318e-05 0 -0.000544887 0 46.7052 0 0.001415 
18 1 0.0481044 0 -0.000645886 -0.0227567 0 -1.32281 -7.5971e-05 0 -0.000561628 0 48.5132 0 0.001415 
19 1 0.0509334 0 -0.000720087 -0.0264214 0 -1.4625 -8.64363e-05 0 -0.000570465 0 50.2028 0 0.001415 
20 1 0.0537623 0 -0.000797806 -0.0303865 0 -1.6068 -9.73628e-05 0 -0.000570636 0 51.7771 0 0.001415 
21 1 0.0565912 0 -0.000878954 -0.0346498 0 -1.75539 -0.000108681 0 -0.00056144 0 53.2394 0 0.001415 
22 1 0.0594199 0 -0.000963441 -0.0392072 0 -1.90795 -0.000120319 0 -0.000542241 0 54.5933 0 0.001415 
23 1 0.0622486 0 -0.00105117 -0.0440539 0 -2.06419 -0.000132204 0 -0.000512472 0 55.8425 0 0.001415 
24 1 0.0650771 0 -0.00114206 -0.0491835 0 -2.22382 -0.000144262 0 -0.000471635 0 56.9909 0 0.001415 
25 1 0.0679055 0 -0.001236 -0.0545887 0 -2.38654 -0.000156422 0 -0.000419307 0 58.0425 0 0.001415 
26 1 0.0707339 0 -0.00133289 -0.0602612 0 -2.5521 -0.000168611 0 -0.000355137 0 59.0016 0 0.001415 
27 1 0.0735621 0 -0.00143263 -0.0661918 0 -2.72025 -0.000180762 0 -0.000278852 0 59.8725 0 0.001415 
28 1 0.0763903 0 -0.00153513 -0.0723708 0 -2.89072 -0.00019281 0 -0.000190256 0 60.6596 0 0.001415 
29 1 0.0792183 0 -0.00164026 -0.0787875 0 -3.06331 -0.000204694 0 -8.92264e-05 0 61.3675 0 0.001415 
30 1 0.0820463 0 -0.00174793 -0.0854309 0 -3.23778 -0.000216358 0 2.42792e-05 0 62.0005 0 0.001415 
31 1 0.0848741 0 -0.00185803 -0.0922897 0 -3.41394 -0.000227752 0 0.00015023 0 62.5635 0 0.001415 
