ITEM: TIMESTEP
3900000
ITEM: NUMBER OF ATOMS
56
ITEM: BOX BOUNDS ff ff ff
-0.1 0.171215
-0.171215 0.171215
-0.171215 0.171215
ITEM: ATOMS id type x y z vx vy vz fx fy fz omegax omegay omegaz radius 
1 1 1.75186e-16 0 -3.82589e-09 4.49197e-15 0 -9.81e-08 0 0 0 0 0 0 0.001415 
2 1 0.00283 0 4.70606e-06 8.88674e-06 0 -0.00406189 -1.87593e-09 0 -4.24102e-06 0 2.84105 0 0.001415 
3 1 0.00565996 0 1.86234e-05 6.98084e-05 0 -0.0160361 -1.5902e-08 0 -1.67237e-05 0 5.59188 0 0.001415 
4 1 0.00848987 0 4.14902e-05 0.000230378 0 -0.0356669 -5.30677e-08 0 -3.71505e-05 0 8.25247 0 0.001415 
5 1 0.0113197 0 7.30482e-05 0.00053369 0 -0.0626984 -1.23313e-07 0 -6.52244e-05 0 10.8228 0 0.001415 
6 1 0.0141494 0 0.000113039 0.00101846 0 -0.0968748 -2.35243e-07 0 -0.000100649 0 13.3031 0 0.001415 
7 1 0.016979 0 0.000161206 0.0017192 0 -0.13794 -3.96578e-07 0 -0.00014313 0 15.6933 0 0.001415 
8 1 0.0198084 0 0.000217291 0.0026663 0 -0.18564 -6.13905e-07 0 -0.000192373 0 17.9938 0 0.001415 
9 1 0.0226377 0 0.000281037 0.00388627 0 -0.239718 -8.92901e-07 0 -0.000248085 0 20.2049 0 0.001415 
10 1 0.0254668 0 0.000352187 0.00540184 0 -0.299923 -1.23815e-06 0 -0.000309976 0 22.3269 0 0.001415 
11 1 0.0282958 0 0.000430486 0.00723215 0 -0.366001 -1.65345e-06 0 -0.000377757 0 24.3604 0 0.001415 
12 1 0.0311245 0 0.00051568 0.00939293 0 -0.437702 -2.14179e-06 0 -0.000451142 0 26.3061 0 0.001415 
13 1 0.033953 0 0.000607514 0.0118966 0 -0.514777 -2.70523e-06 0 -0.000529849 0 28.1647 0 0.001415 
14 1 0.0367813 0 0.000705737 0.0147527 0 -0.596981 -3.34527e-06 0 -0.000613597 0 29.937 0 0.001415 
15 1 0.0396094 0 0.000810097 0.0179675 0 -0.68407 -4.0626e-06 0 -0.000702111 0 31.6243 0 0.001415 
16 1 0.0424372 0 0.000920346 0.0215451 0 -0.775804 -4.8575e-06 0 -0.000795121 0 33.2274 0 0.001415 
17 1 0.0452648 0 0.00103624 0.0254865 0 -0.871946 -5.72934e-06 0 -0.000892359 0 34.7479 0 0.001415 
18 1 0.0480922 0 0.00115753 0.0297909 0 -0.972264 -6.67741e-06 0 -0.000993565 0 36.187 0 0.001415 
19 1 0.0509194 0 0.00128397 0.0344551 0 -1.07653 -7.70033e-06 0 -0.00109848 0 37.5463 0 0.001415 
20 1 0.0537464 0 0.00141533 0.0394738 0 -1.18452 -8.7964e-06 0 -0.00120687 0 38.8274 0 0.001415 
21 1 0.0565731 0 0.00155137 0.0448404 0 -1.29601 -9.96337e-06 0 -0.00131847 0 40.0322 0 0.001415 
22 1 0.0593996 0 0.00169185 0.0505462 0 -1.41079 -1.11994e-05 0 -0.00143307 0 41.1626 0 0.001415 
23 1 0.0622259 0 0.00183655 0.0565815 0 -1.52866 -1.25014e-05 0 -0.00155042 0 42.2205 0 0.001415 
24 1 0.065052 0 0.00198524 0.0629351 0 -1.6494 -1.38669e-05 0 -0.00167032 0 43.208 0 0.001415 
25 1 0.0678779 0 0.0021377 0.069595 0 -1.77283 -1.52932e-05 0 -0.00179255 0 44.1274 0 0.001415 
26 1 0.0707036 0 0.00229371 0.0765482 0 -1.89876 -1.67768e-05 0 -0.00191691 0 44.981 0 0.001415 
27 1 0.0735291 0 0.00245305 0.0837809 0 -2.027 -1.83154e-05 0 -0.00204321 0 45.7711 0 0.001415 
28 1 0.0763544 0 0.00261553 0.0912789 0 -2.15738 -1.99053e-05 0 -0.00217127 0 46.5003 0 0.001415 
29 1 0.0791796 0 0.00278092 0.0990274 0 -2.28972 -2.15438e-05 0 -0.0023009 0 47.1709 0 0.001415 
30 1 0.0820046 0 0.00294904 0.107012 0 -2.42387 -2.32278e-05 0 -0.00243196 0 47.7855 0 0.001415 
31 1 0.0848294 0 0.00311969 0.115216 0 -2.55968 -2.49544e-05 0 -0.00256427 0 48.3469 0 0.001415 
32 1 0.0876541 0 0.00329269 0.123626 0 -2.69699 -2.67203e-05 0 -0.00269771 0 48.8575 0 0.001415 
33 1 0.0904787 0 0.00346785 0.132226 0 -2.83566 -2.8523e-05 0 -0.00283213 0 49.32 0 0.001415 
34 1 0.0933032 0 0.00364499 0.141002 0 -2.97557 -3.03595e-05 0 -0.0029674 0 49.7372 0 0.001415 
35 1 0.0961275 0 0.00382396 0.149938 0 -3.1166 -3.22277e-05 0 -0.00310342 0 50.1116 0 0.001415 
36 1 0.0989517 0 0.00400458 0.159021 0 -3.25861 -3.41242e-05 0 -0.00324008 0 50.446 0 0.001415 
37 1 0.101776 0 0.00418669 0.168237 0 -3.40151 -3.60473e-05 0 -0.00337728 0 50.7429 0 0.001415 
38 1 0.1046 0 0.00437016 0.177572 0 -3.5452 -3.79944e-05 0 -0.00351494 0 51.0049 0 0.001415 
39 1 0.107424 0 0.00455483 0.187014 0 -3.68957 -3.99634e-05 0 -0.00365297 0 51.2347 0 0.001415 
40 1 0.110248 0 0.00474058 0.19655 0 -3.83455 -4.19519e-05 0 -0.00379131 0 51.4347 0 0.001415 
41 1 0.113072 0 0.00492727 0.20617 0 -3.98005 -4.39588e-05 0 -0.0039299 0 51.6074 0 0.001415 
42 1 0.115895 0 0.00511479 0.215862 0 -4.126 -4.59814e-05 0 -0.00406869 0 51.7552 0 0.001415 
43 1 0.118719 0 0.00530302 0.225617 0 -4.27233 -4.80185e-05 0 -0.00420762 0 51.8804 0 0.001415 
44 1 0.121543 0 0.00549186 0.235425 0 -4.41898 -5.0068e-05 0 -0.00434666 0 51.9852 0 0.001415 
45 1 0.124366 0 0.00568121 0.245278 0 -4.5659 -5.21292e-05 0 -0.00448578 0 52.0719 0 0.001415 
46 1 0.12719 0 0.00587099 0.255167 0 -4.71304 -5.41999e-05 0 -0.00462496 0 52.1425 0 0.001415 
47 1 0.130014 0 0.00606112 0.265087 0 -4.86035 -5.62791e-05 0 -0.00476416 0 52.1989 0 0.001415 
48 1 0.132837 0 0.00625152 0.275031 0 -5.00781 -5.83662e-05 0 -0.00490338 0 52.2431 0 0.001415 
49 1 0.135661 0 0.00644213 0.284993 0 -5.15537 -6.04584e-05 0 -0.00504261 0 52.2767 0 0.001415 
50 1 0.138484 0 0.00663291 0.294969 0 -5.30302 -6.25565e-05 0 -0.00518184 0 52.3016 0 0.001415 
51 1 0.141308 0 0.0068238 0.304955 0 -5.45072 -6.46581e-05 0 -0.00532106 0 52.3191 0 0.001415 
52 1 0.144132 0 0.00701477 0.314948 0 -5.59846 -6.67625e-05 0 -0.00546027 0 52.3308 0 0.001415 
53 1 0.146955 0 0.0072058 0.324945 0 -5.74624 -6.88692e-05 0 -0.00559948 0 52.338 0 0.001415 
54 1 0.149779 0 0.00739687 0.334946 0 -5.89402 -7.09767e-05 0 -0.00573868 0 52.3418 0 0.001415 
55 1 0.152602 0 0.00758796 0.344948 0 -6.04181 -7.30841e-05 0 -0.00587787 0 52.3435 0 0.001415 
56 1 0.155426 0 0.00777906 0.354952 0 -6.18961 -7.51915e-05 0 -0.00601707 0 52.3439 0 0.001415 
