ITEM: TIMESTEP
8600000
ITEM: NUMBER OF ATOMS
56
ITEM: BOX BOUNDS ff ff ff
-0.1 0.171215
-0.171215 0.171215
-0.171215 0.171215
ITEM: ATOMS id type x y z vx vy vz fx fy fz omegax omegay omegaz radius 
52 1 0.144192 0 -0.00578904 0.167356 0 3.53276 5.95631e-05 0 0.00444802 0 -34.8536 0 0.001415 
53 1 0.147017 0 -0.00595462 0.173129 0 3.63125 6.17205e-05 0 0.00457204 0 -34.8677 0 0.001415 
54 1 0.149843 0 -0.00612026 0.178905 0 3.72977 6.38804e-05 0 0.0046961 0 -34.8757 0 0.001415 
55 1 0.152668 0 -0.00628594 0.184684 0 3.8283 6.6041e-05 0 0.00482017 0 -34.8793 0 0.001415 
56 1 0.155493 0 -0.00645162 0.190463 0 3.92684 6.82013e-05 0 0.00494425 0 -34.8802 0 0.001415 
40 1 0.110289 0 -0.00383354 0.0999724 0 2.36468 3.46218e-05 0 0.00297722 0 -33.6524 0 0.001415 
41 1 0.113114 0 -0.0039923 0.105332 0 2.46006 3.65784e-05 0 0.00309732 0 -33.8556 0 0.001415 
42 1 0.11594 0 -0.00415217 0.11076 0 2.55598 3.85659e-05 0 0.00321811 0 -34.0359 0 0.001415 
43 1 0.118765 0 -0.00431303 0.116249 0 2.65238 4.05822e-05 0 0.00333949 0 -34.1943 0 0.001415 
44 1 0.12159 0 -0.00447479 0.121792 0 2.7492 4.26238e-05 0 0.00346139 0 -34.3322 0 0.001415 
45 1 0.124416 0 -0.00463732 0.127382 0 2.84638 4.46884e-05 0 0.00358375 0 -34.4508 0 0.001415 
46 1 0.127241 0 -0.00480053 0.133014 0 2.94386 4.6773e-05 0 0.0037065 0 -34.5514 0 0.001415 
47 1 0.130066 0 -0.00496433 0.138681 0 3.0416 4.88754e-05 0 0.00382957 0 -34.6352 0 0.001415 
48 1 0.132892 0 -0.00512861 0.144377 0 3.13956 5.09924e-05 0 0.00395292 0 -34.7037 0 0.001415 
49 1 0.135717 0 -0.00529331 0.150097 0 3.23769 5.31223e-05 0 0.00407648 0 -34.7583 0 0.001415 
50 1 0.138542 0 -0.00545832 0.155837 0 3.33595 5.52618e-05 0 0.00420021 0 -34.8005 0 0.001415 
51 1 0.141367 0 -0.00562359 0.161591 0 3.43432 5.74099e-05 0 0.00432407 0 -34.8317 0 0.001415 
27 1 0.0735481 0 -0.00192933 0.0398519 0 1.20774 1.32437e-05 0 0.00152059 0 -28.4744 0 0.001415 
28 1 0.076375 0 -0.0020617 0.0436613 0 1.28909 1.45597e-05 0 0.001623 0 -29.0618 0 0.001415 
29 1 0.0792018 0 -0.00219696 0.0476307 0 1.37203 1.59376e-05 0 0.00172743 0 -29.615 0 0.001415 
30 1 0.0820284 0 -0.00233494 0.0517541 0 1.45649 1.73758e-05 0 0.00183376 0 -30.1347 0 0.001415 
31 1 0.0848549 0 -0.00247551 0.0560255 0 1.54237 1.8873e-05 0 0.00194188 0 -30.6215 0 0.001415 
32 1 0.0876813 0 -0.00261851 0.0604382 0 1.62958 2.04263e-05 0 0.00205168 0 -31.0762 0 0.001415 
33 1 0.0905075 0 -0.00276381 0.0649854 0 1.71802 2.2035e-05 0 0.00216303 0 -31.4994 0 0.001415 
34 1 0.0933337 0 -0.00291127 0.0696601 0 1.80761 2.36957e-05 0 0.00227583 0 -31.892 0 0.001415 
35 1 0.0961598 0 -0.00306073 0.0744551 0 1.89827 2.54063e-05 0 0.00238997 0 -32.2548 0 0.001415 
36 1 0.0989857 0 -0.00321207 0.0793628 0 1.9899 2.71649e-05 0 0.00250534 0 -32.5885 0 0.001415 
37 1 0.101812 0 -0.00336515 0.084376 0 2.08244 2.89682e-05 0 0.00262185 0 -32.8942 0 0.001415 
38 1 0.104637 0 -0.00351985 0.089487 0 2.17579 3.0814e-05 0 0.0027394 0 -33.1727 0 0.001415 
39 1 0.107463 0 -0.00367602 0.0946883 0 2.2699 3.26997e-05 0 0.00285789 0 -33.4251 0 0.001415 
1 1 3.86309e-16 0 -8.43659e-09 4.49197e-15 0 -9.81e-08 0 0 0 0 0 0 0.001415 
2 1 0.00283 0 -3.52314e-06 3.93566e-06 0 0.00226217 1.21948e-09 0 2.85056e-06 0 -1.58579 0 0.001415 
3 1 0.00565998 0 -1.39391e-05 2.96639e-05 0 0.00895596 9.1236e-09 0 1.12843e-05 0 -3.13184 0 0.001415 
4 1 0.00848993 0 -3.11009e-05 9.75059e-05 0 0.0199687 3.00476e-08 0 2.51582e-05 0 -4.63815 0 0.001415 
5 1 0.0113198 0 -5.48529e-05 0.000226266 0 0.0351876 6.98315e-08 0 4.43293e-05 0 -6.10469 0 0.001415 
6 1 0.0141497 0 -8.50393e-05 0.000433266 0 0.0545001 1.34108e-07 0 6.86546e-05 0 -7.53148 0 0.001415 
7 1 0.0169794 0 -0.000121504 0.000734388 0 0.0777933 2.27976e-07 0 9.79916e-05 0 -8.91851 0 0.001415 
8 1 0.0198091 0 -0.000164092 0.0011441 0 0.104954 3.56296e-07 0 0.000132198 0 -10.2658 0 0.001415 
9 1 0.0226387 0 -0.000212647 0.00167552 0 0.135871 5.23352e-07 0 0.00017113 0 -11.5734 0 0.001415 
10 1 0.0254682 0 -0.000267013 0.0023404 0 0.17043 7.33433e-07 0 0.000214648 0 -12.8414 0 0.001415 
11 1 0.0282975 0 -0.000327034 0.00314924 0 0.208518 9.90108e-07 0 0.000262608 0 -14.0697 0 0.001415 
12 1 0.0311268 0 -0.000392553 0.00411127 0 0.250025 1.29689e-06 0 0.000314869 0 -15.2585 0 0.001415 
13 1 0.0339559 0 -0.000463416 0.00523449 0 0.294837 1.65668e-06 0 0.000371291 0 -16.408 0 0.001415 
14 1 0.0367849 0 -0.000539465 0.00652577 0 0.342843 2.0724e-06 0 0.000431732 0 -17.5181 0 0.001415 
15 1 0.0396137 0 -0.000620545 0.00799081 0 0.393932 2.54645e-06 0 0.000496052 0 -18.5891 0 0.001415 
16 1 0.0424424 0 -0.0007065 0.00963424 0 0.447992 3.08069e-06 0 0.000564113 0 -19.621 0 0.001415 
17 1 0.0452709 0 -0.000797173 0.0114596 0 0.504914 3.6771e-06 0 0.000635774 0 -20.6142 0 0.001415 
18 1 0.0480993 0 -0.00089241 0.0134696 0 0.564587 4.33722e-06 0 0.000710899 0 -21.5688 0 0.001415 
19 1 0.0509276 0 -0.000992055 0.0156657 0 0.626902 5.06203e-06 0 0.000789349 0 -22.4851 0 0.001415 
20 1 0.0537557 0 -0.00109595 0.0180487 0 0.691751 5.85264e-06 0 0.00087099 0 -23.3633 0 0.001415 
21 1 0.0565836 0 -0.00120395 0.0206185 0 0.759027 6.70963e-06 0 0.000955684 0 -24.2037 0 0.001415 
22 1 0.0594114 0 -0.00131588 0.023374 0 0.828623 7.633e-06 0 0.0010433 0 -25.0068 0 0.001415 
23 1 0.062239 0 -0.00143161 0.0263135 0 0.900432 8.62328e-06 0 0.0011337 0 -25.7727 0 0.001415 
24 1 0.0650665 0 -0.00155097 0.0294345 0 0.974352 9.68013e-06 0 0.00122676 0 -26.502 0 0.001415 
25 1 0.0678939 0 -0.00167381 0.0327338 0 1.05028 1.08028e-05 0 0.00132235 0 -27.1951 0 0.001415 
26 1 0.070721 0 -0.00179998 0.0362078 0 1.12811 1.19911e-05 0 0.00142033 0 -27.8524 0 0.001415 
