ITEM: TIMESTEP
4900000
ITEM: NUMBER OF ATOMS
56
ITEM: BOX BOUNDS ff ff ff
-0.1 0.171215
-0.171215 0.171215
-0.171215 0.171215
ITEM: ATOMS id type x y z vx vy vz fx fy fz omegax omegay omegaz radius 
43 1 0.118836 0 -0.00217013 -0.112419 0 -5.08374 -0.000348825 0 0.00182705 0 65.4903 0 0.001415 
44 1 0.121665 0 -0.00225317 -0.117868 0 -5.26939 -0.00036531 0 0.00188176 0 65.7548 0 0.001415 
45 1 0.124493 0 -0.00233667 -0.123369 0 -5.45573 -0.000381926 0 0.00193632 0 65.9824 0 0.001415 
46 1 0.127322 0 -0.00242059 -0.128915 0 -5.64267 -0.000398654 0 0.00199073 0 66.1753 0 0.001415 
47 1 0.130151 0 -0.00250487 -0.1345 0 -5.8301 -0.000415477 0 0.00204501 0 66.3362 0 0.001415 
48 1 0.13298 0 -0.00258945 -0.140117 0 -6.01795 -0.00043238 0 0.00209917 0 66.4677 0 0.001415 
49 1 0.135808 0 -0.00267429 -0.145761 0 -6.20613 -0.000449346 0 0.00215324 0 66.5726 0 0.001415 
50 1 0.138637 0 -0.00275934 -0.151427 0 -6.39457 -0.000466363 0 0.00220721 0 66.6536 0 0.001415 
51 1 0.141466 0 -0.00284456 -0.15711 0 -6.5832 -0.000483416 0 0.00226112 0 66.7136 0 0.001415 
52 1 0.144295 0 -0.00292989 -0.162805 0 -6.77199 -0.000500499 0 0.00231498 0 66.7556 0 0.001415 
53 1 0.147123 0 -0.00301531 -0.168508 0 -6.96086 -0.000517599 0 0.00236881 0 66.7828 0 0.001415 
54 1 0.149952 0 -0.00310076 -0.174216 0 -7.1498 -0.000534711 0 0.00242261 0 66.7982 0 0.001415 
55 1 0.152781 0 -0.00318624 -0.179926 0 -7.33876 -0.000551829 0 0.0024764 0 66.8051 0 0.001415 
56 1 0.155609 0 -0.00327171 -0.185636 0 -7.52774 -0.000568949 0 0.00253018 0 66.8068 0 0.001415 
1 1 2.20106e-16 0 -4.80689e-09 4.49197e-15 0 -9.81e-08 0 0 0 0 0 0 0.001415 
2 1 0.00283 0 -1.71415e-06 -3.72472e-06 0 -0.00433518 -1.21118e-08 0 2.1009e-06 0 3.03889 0 0.001415 
3 1 0.00566 0 -6.78522e-06 -2.77815e-05 0 -0.017162 -9.07091e-08 0 8.25755e-06 0 6.00128 0 0.001415 
4 1 0.00848999 0 -1.51497e-05 -9.11911e-05 0 -0.0382641 -2.97815e-07 0 1.82938e-05 0 8.88717 0 0.001415 
5 1 0.01132 0 -2.67392e-05 -0.000211619 0 -0.0674249 -6.90528e-07 0 3.20339e-05 0 11.6966 0 0.001415 
6 1 0.0141499 0 -4.14852e-05 -0.000405405 0 -0.104428 -1.3214e-06 0 4.93029e-05 0 14.4296 0 0.001415 
7 1 0.0169799 0 -5.93193e-05 -0.000687598 0 -0.149057 -2.23862e-06 0 6.99266e-05 0 17.0862 0 0.001415 
8 1 0.0198098 0 -8.0173e-05 -0.00107198 0 -0.201096 -3.48571e-06 0 9.37318e-05 0 19.6665 0 0.001415 
9 1 0.0226397 0 -0.000103978 -0.00157112 0 -0.260328 -5.10239e-06 0 0.000120546 0 22.1706 0 0.001415 
10 1 0.0254696 0 -0.000130664 -0.00219636 0 -0.326538 -7.12366e-06 0 0.0001502 0 24.5986 0 0.001415 
11 1 0.0282994 0 -0.000160164 -0.00295791 0 -0.399511 -9.58126e-06 0 0.000182523 0 26.9507 0 0.001415 
12 1 0.0311292 0 -0.000192408 -0.00386481 0 -0.479032 -1.25024e-05 0 0.00021735 0 29.227 0 0.001415 
13 1 0.033959 0 -0.000227328 -0.00492502 0 -0.564887 -1.59108e-05 0 0.000254515 0 31.4277 0 0.001415 
14 1 0.0367888 0 -0.000264853 -0.00614544 0 -0.656861 -1.98272e-05 0 0.000293857 0 33.5531 0 0.001415 
15 1 0.0396185 0 -0.000304915 -0.00753192 0 -0.754742 -2.42673e-05 0 0.000335219 0 35.6035 0 0.001415 
16 1 0.0424482 0 -0.000347444 -0.00908931 0 -0.858318 -2.92455e-05 0 0.000378443 0 37.5792 0 0.001415 
17 1 0.0452778 0 -0.000392369 -0.0108215 0 -0.967377 -3.47713e-05 0 0.00042338 0 39.4806 0 0.001415 
18 1 0.0481074 0 -0.000439621 -0.0127314 0 -1.08171 -4.08521e-05 0 0.000469881 0 41.3082 0 0.001415 
19 1 0.050937 0 -0.00048913 -0.0148212 0 -1.20111 -4.74918e-05 0 0.000517805 0 43.0623 0 0.001415 
20 1 0.0537665 0 -0.000540825 -0.017092 0 -1.32537 -5.46925e-05 0 0.000567014 0 44.7436 0 0.001415 
21 1 0.056596 0 -0.000594636 -0.0195442 0 -1.45428 -6.24522e-05 0 0.000617374 0 46.3527 0 0.001415 
22 1 0.0594255 0 -0.000650491 -0.0221774 0 -1.58764 -7.07679e-05 0 0.00066876 0 47.8901 0 0.001415 
23 1 0.0622549 0 -0.00070832 -0.0249904 0 -1.72525 -7.96331e-05 0 0.000721048 0 49.3566 0 0.001415 
24 1 0.0650842 0 -0.000768052 -0.0279815 0 -1.8669 -8.90398e-05 0 0.000774125 0 50.753 0 0.001415 
25 1 0.0679136 0 -0.000829615 -0.031148 0 -2.01241 -9.89778e-05 0 0.000827881 0 52.0801 0 0.001415 
26 1 0.0707429 0 -0.000892938 -0.0344869 0 -2.16157 -0.000109435 0 0.000882213 0 53.3388 0 0.001415 
27 1 0.0735721 0 -0.000957949 -0.0379945 0 -2.3142 -0.000120397 0 0.000937026 0 54.53 0 0.001415 
28 1 0.0764013 0 -0.00102458 -0.0416663 0 -2.47009 -0.000131849 0 0.000992229 0 55.6548 0 0.001415 
29 1 0.0792305 0 -0.00109275 -0.0454978 0 -2.62908 -0.000143774 0 0.00104774 0 56.7144 0 0.001415 
30 1 0.0820597 0 -0.0011624 -0.0494837 0 -2.79097 -0.000156154 0 0.00110348 0 57.7098 0 0.001415 
31 1 0.0848888 0 -0.00123345 -0.0536183 0 -2.95559 -0.000168969 0 0.00115939 0 58.6424 0 0.001415 
32 1 0.0877178 0 -0.00130583 -0.0578956 0 -3.12275 -0.000182199 0 0.0012154 0 59.5134 0 0.001415 
33 1 0.0905469 0 -0.00137948 -0.0623094 0 -3.29229 -0.000195824 0 0.00127146 0 60.3243 0 0.001415 
34 1 0.0933759 0 -0.00145431 -0.066853 0 -3.46404 -0.000209821 0 0.00132751 0 61.0765 0 0.001415 
35 1 0.0962049 0 -0.00153027 -0.0715196 0 -3.63783 -0.000224168 0 0.00138353 0 61.7716 0 0.001415 
36 1 0.0990338 0 -0.00160728 -0.0763022 0 -3.81351 -0.000238842 0 0.00143946 0 62.4113 0 0.001415 
37 1 0.101863 0 -0.00168527 -0.0811936 0 -3.99092 -0.000253821 0 0.00149529 0 62.9972 0 0.001415 
38 1 0.104692 0 -0.00176418 -0.0861865 0 -4.16991 -0.000269082 0 0.00155098 0 63.5312 0 0.001415 
39 1 0.107521 0 -0.00184393 -0.0912737 0 -4.35034 -0.000284602 0 0.00160653 0 64.015 0 0.001415 
40 1 0.110349 0 -0.00192447 -0.0964478 0 -4.53207 -0.000300358 0 0.00166191 0 64.4508 0 0.001415 
41 1 0.113178 0 -0.00200572 -0.101701 0 -4.71496 -0.000316329 0 0.00171713 0 64.8405 0 0.001415 
42 1 0.116007 0 -0.00208763 -0.107027 0 -4.89889 -0.000332491 0 0.00177218 0 65.1862 0 0.001415 
