ITEM: TIMESTEP
14100000
ITEM: NUMBER OF ATOMS
56
ITEM: BOX BOUNDS ff ff ff
-0.1 0.171215
-0.171215 0.171215
-0.171215 0.171215
ITEM: ATOMS id type x y z vx vy vz fx fy fz omegax omegay omegaz radius 
1 1 6.33367e-16 0 -1.38321e-08 4.49197e-15 0 -9.81e-08 0 0 0 0 0 0 0.001415 
2 1 0.00283 0 3.36826e-06 6.49369e-07 0 -0.00039605 4.1522e-09 0 -2.59833e-06 0 0.277499 0 0.001415 
3 1 0.00565998 0 1.33595e-05 4.95562e-06 0 -0.00156749 3.16851e-08 0 -1.0287e-05 0 0.548055 0 0.001415 
4 1 0.00848993 0 2.97718e-05 1.62977e-05 0 -0.00349475 1.04143e-07 0 -2.29369e-05 0 0.811664 0 0.001415 
5 1 0.0113198 0 5.24171e-05 3.77701e-05 0 -0.00615815 2.41362e-07 0 -4.04189e-05 0 1.06833 0 0.001415 
6 1 0.0141497 0 8.11075e-05 7.21907e-05 0 -0.00953798 4.61278e-07 0 -6.26037e-05 0 1.31804 0 0.001415 
7 1 0.0169795 0 0.000115655 0.000122109 0 -0.0136145 7.80231e-07 0 -8.93623e-05 0 1.56081 0 0.001415 
8 1 0.0198092 0 0.000155872 0.000189814 0 -0.0183682 1.21279e-06 0 -0.000120565 0 1.79664 0 0.001415 
9 1 0.0226388 0 0.000201572 0.000277343 0 -0.0237791 1.77195e-06 0 -0.000156084 0 2.02553 0 0.001415 
10 1 0.0254684 0 0.000252568 0.00038649 0 -0.0298277 2.4692e-06 0 -0.000195788 0 2.24749 0 0.001415 
11 1 0.0282978 0 0.000308673 0.000518814 0 -0.0364944 3.31452e-06 0 -0.00023955 0 2.46254 0 0.001415 
12 1 0.0311272 0 0.000369703 0.000675649 0 -0.0437595 4.31636e-06 0 -0.00028724 0 2.67068 0 0.001415 
13 1 0.0339564 0 0.000435472 0.000858112 0 -0.0516034 5.48174e-06 0 -0.000338731 0 2.87193 0 0.001415 
14 1 0.0367855 0 0.000505797 0.00106711 0 -0.0600067 6.81683e-06 0 -0.000393894 0 3.06632 0 0.001415 
15 1 0.0396145 0 0.000580495 0.00130337 0 -0.0689498 8.32563e-06 0 -0.000452602 0 3.25386 0 0.001415 
16 1 0.0424434 0 0.000659386 0.00156739 0 -0.0784135 1.00118e-05 0 -0.000514727 0 3.43459 0 0.001415 
17 1 0.0452722 0 0.000742289 0.00185954 0 -0.0883785 1.18777e-05 0 -0.000580143 0 3.60854 0 0.001415 
18 1 0.0481009 0 0.000829027 0.00217999 0 -0.0988255 1.3924e-05 0 -0.000648725 0 3.77574 0 0.001415 
19 1 0.0509294 0 0.000919423 0.00252876 0 -0.109736 1.6151e-05 0 -0.000720347 0 3.93625 0 0.001415 
20 1 0.0537579 0 0.0010133 0.00290572 0 -0.12109 1.85582e-05 0 -0.000794885 0 4.0901 0 0.001415 
21 1 0.0565862 0 0.0011105 0.00331061 0 -0.132869 2.11432e-05 0 -0.000872216 0 4.23734 0 0.001415 
22 1 0.0594144 0 0.00121083 0.00374303 0 -0.145055 2.3904e-05 0 -0.000952218 0 4.37805 0 0.001415 
23 1 0.0622425 0 0.00131415 0.00420247 0 -0.15763 2.68372e-05 0 -0.00103477 0 4.51227 0 0.001415 
24 1 0.0650706 0 0.00142027 0.00468831 0 -0.170574 2.99389e-05 0 -0.00111975 0 4.64008 0 0.001415 
25 1 0.0678985 0 0.00152905 0.00519985 0 -0.183871 3.3204e-05 0 -0.00120704 0 4.76156 0 0.001415 
26 1 0.0707263 0 0.00164032 0.00573626 0 -0.197501 3.66284e-05 0 -0.00129653 0 4.87678 0 0.001415 
27 1 0.073554 0 0.00175392 0.00629669 0 -0.211449 4.02051e-05 0 -0.0013881 0 4.98583 0 0.001415 
28 1 0.0763816 0 0.00186972 0.00688018 0 -0.225695 4.39295e-05 0 -0.00148163 0 5.08881 0 0.001415 
29 1 0.0792092 0 0.00198755 0.00748573 0 -0.240224 4.77938e-05 0 -0.00157701 0 5.18581 0 0.001415 
30 1 0.0820366 0 0.00210729 0.00811228 0 -0.255018 5.17924e-05 0 -0.00167414 0 5.27695 0 0.001415 
31 1 0.084864 0 0.00222878 0.00875874 0 -0.270062 5.59175e-05 0 -0.0017729 0 5.36233 0 0.001415 
32 1 0.0876914 0 0.00235189 0.009424 0 -0.285338 6.01628e-05 0 -0.0018732 0 5.44208 0 0.001415 
33 1 0.0905186 0 0.00247649 0.0101069 0 -0.300832 6.45198e-05 0 -0.00197492 0 5.51633 0 0.001415 
34 1 0.0933458 0 0.00260246 0.0108063 0 -0.316527 6.89823e-05 0 -0.00207797 0 5.5852 0 0.001415 
35 1 0.0961729 0 0.00272968 0.0115211 0 -0.33241 7.35422e-05 0 -0.00218224 0 5.64885 0 0.001415 
36 1 0.099 0 0.00285802 0.01225 0 -0.348465 7.81922e-05 0 -0.00228765 0 5.70742 0 0.001415 
37 1 0.101827 0 0.00298738 0.0129919 0 -0.364678 8.29252e-05 0 -0.00239409 0 5.76107 0 0.001415 
38 1 0.104654 0 0.00311766 0.0137458 0 -0.381036 8.77338e-05 0 -0.00250149 0 5.80996 0 0.001415 
39 1 0.107481 0 0.00324874 0.0145104 0 -0.397525 9.26111e-05 0 -0.00260975 0 5.85427 0 0.001415 
40 1 0.110308 0 0.00338054 0.0152848 0 -0.414133 9.75498e-05 0 -0.00271879 0 5.89417 0 0.001415 
41 1 0.113135 0 0.00351296 0.0160678 0 -0.430848 0.000102544 0 -0.00282853 0 5.92985 0 0.001415 
42 1 0.115962 0 0.00364593 0.0168585 0 -0.447658 0.000107587 0 -0.00293889 0 5.96151 0 0.001415 
43 1 0.118789 0 0.00377935 0.0176559 0 -0.464551 0.000112672 0 -0.0030498 0 5.98934 0 0.001415 
44 1 0.121615 0 0.00391318 0.0184591 0 -0.481518 0.000117794 0 -0.00316119 0 6.01356 0 0.001415 
45 1 0.124442 0 0.00404732 0.0192674 0 -0.498548 0.000122948 0 -0.00327301 0 6.0344 0 0.001415 
46 1 0.127269 0 0.00418173 0.0200797 0 -0.515632 0.000128128 0 -0.00338517 0 6.05206 0 0.001415 
47 1 0.130096 0 0.00431636 0.0208956 0 -0.532762 0.00013333 0 -0.00349764 0 6.06679 0 0.001415 
48 1 0.132923 0 0.00445115 0.0217142 0 -0.54993 0.00013855 0 -0.00361035 0 6.07883 0 0.001415 
49 1 0.135749 0 0.00458607 0.0225351 0 -0.567128 0.000143783 0 -0.00372327 0 6.08842 0 0.001415 
50 1 0.138576 0 0.00472107 0.0233577 0 -0.58435 0.000149028 0 -0.00383634 0 6.09584 0 0.001415 
51 1 0.141403 0 0.00485614 0.0241815 0 -0.601591 0.00015428 0 -0.00394953 0 6.10133 0 0.001415 
52 1 0.14423 0 0.00499126 0.0250061 0 -0.618844 0.000159538 0 -0.0040628 0 6.10518 0 0.001415 
53 1 0.147057 0 0.0051264 0.0258314 0 -0.636106 0.0001648 0 -0.00417613 0 6.10766 0 0.001415 
54 1 0.149883 0 0.00526157 0.0266571 0 -0.653373 0.000170064 0 -0.0042895 0 6.10907 0 0.001415 
55 1 0.15271 0 0.00539675 0.027483 0 -0.670643 0.000175329 0 -0.00440289 0 6.1097 0 0.001415 
56 1 0.155537 0 0.00553195 0.028309 0 -0.687915 0.000180596 0 -0.00451628 0 6.10986 0 0.001415 
