ITEM: TIMESTEP
900000
ITEM: NUMBER OF ATOMS
56
ITEM: BOX BOUNDS ff ff ff
-0.1 0.171215
-0.171215 0.171215
-0.171215 0.171215
ITEM: ATOMS id type x y z vx vy vz fx fy fz omegax omegay omegaz radius 
48 1 0.132836 0 -0.00616584 -0.0474544 0 -0.773286 -7.522e-06 0 -8.54973e-05 0 12.5156 0 0.001415 
49 1 0.135658 0 -0.00637434 -0.0500778 0 -0.808788 -7.11904e-06 0 -7.10248e-05 0 12.6356 0 0.001415 
50 1 0.13848 0 -0.00658359 -0.0527337 0 -0.844598 -6.70036e-06 0 -5.62317e-05 0 12.7344 0 0.001415 
51 1 0.141302 0 -0.00679347 -0.0554158 0 -0.880656 -6.26765e-06 0 -4.11815e-05 0 12.8118 0 0.001415 
52 1 0.144125 0 -0.0070038 -0.0581177 0 -0.916901 -5.82669e-06 0 -2.59376e-05 0 12.8673 0 0.001415 
53 1 0.146947 0 -0.00721443 -0.060833 0 -0.953272 -5.37848e-06 0 -1.05642e-05 0 12.9009 0 0.001415 
54 1 0.149769 0 -0.00742522 -0.063555 0 -0.989707 -4.92675e-06 0 4.8743e-06 0 12.9124 0 0.001415 
55 1 0.152591 0 -0.00763602 -0.066277 0 -1.02615 -4.47512e-06 0 2.03186e-05 0 12.9127 0 0.001415 
56 1 0.155413 0 -0.00784682 -0.0689991 0 -1.06259 -4.02357e-06 0 3.57633e-05 0 12.9128 0 0.001415 
38 1 0.104607 0 -0.00415646 -0.0242156 0 -0.447371 -1.00399e-05 0 -0.000199449 0 10.2851 0 0.001415 
39 1 0.107431 0 -0.00434894 -0.0262249 0 -0.476833 -9.94907e-06 0 -0.0001914 0 10.5808 0 0.001415 
40 1 0.110254 0 -0.0045437 -0.0283143 0 -0.50711 -9.81708e-06 0 -0.000182473 0 10.8627 0 0.001415 
41 1 0.113077 0 -0.00474059 -0.0304807 0 -0.538162 -9.64551e-06 0 -0.000172715 0 11.13 0 0.001415 
42 1 0.1159 0 -0.00493947 -0.0327206 0 -0.569944 -9.43623e-06 0 -0.000162173 0 11.3816 0 0.001415 
43 1 0.118723 0 -0.00514017 -0.0350298 0 -0.602413 -9.19134e-06 0 -0.000150898 0 11.6167 0 0.001415 
44 1 0.121546 0 -0.00534256 -0.0374043 0 -0.635519 -8.91319e-06 0 -0.000138946 0 11.8343 0 0.001415 
45 1 0.124368 0 -0.00554647 -0.0398391 0 -0.669213 -8.60456e-06 0 -0.000126371 0 12.0337 0 0.001415 
46 1 0.127191 0 -0.00575175 -0.0423293 0 -0.703442 -8.26769e-06 0 -0.000113232 0 12.2141 0 0.001415 
47 1 0.130013 0 -0.00595826 -0.0448697 0 -0.738151 -7.90624e-06 0 -9.95867e-05 0 12.375 0 0.001415 
26 1 0.0707109 0 -0.00207972 -0.00689506 0 -0.167607 -7.79377e-06 0 -0.000217168 0 6.09111 0 0.001415 
27 1 0.0735368 0 -0.00223307 -0.00785827 0 -0.185338 -8.19319e-06 0 -0.000221485 0 6.45911 0 0.001415 
28 1 0.0763624 0 -0.0023905 -0.00890509 0 -0.20411 -8.56143e-06 0 -0.000224773 0 6.82792 0 0.001415 
29 1 0.0791878 0 -0.00255186 -0.0100375 0 -0.223923 -8.89564e-06 0 -0.000227008 0 7.19631 0 0.001415 
30 1 0.082013 0 -0.002717 -0.0112572 0 -0.244773 -9.19231e-06 0 -0.000228176 0 7.563 0 0.001415 
31 1 0.0848379 0 -0.00288578 -0.0125654 0 -0.266653 -9.44997e-06 0 -0.000228266 0 7.92674 0 0.001415 
32 1 0.0876627 0 -0.00305804 -0.0139629 0 -0.289554 -9.66573e-06 0 -0.000227279 0 8.28625 0 0.001415 
33 1 0.0904872 0 -0.00323365 -0.0154502 0 -0.313462 -9.83868e-06 0 -0.000225219 0 8.64028 0 0.001415 
34 1 0.0933116 0 -0.00341243 -0.0170271 0 -0.338359 -9.96784e-06 0 -0.000222098 0 8.98757 0 0.001415 
35 1 0.0961357 0 -0.00359426 -0.0186933 0 -0.364224 -1.00522e-05 0 -0.000217935 0 9.32689 0 0.001415 
36 1 0.0989597 0 -0.00377897 -0.0204477 0 -0.391033 -1.00924e-05 0 -0.000212753 0 9.65704 0 0.001415 
37 1 0.101783 0 -0.00396643 -0.0222891 0 -0.418759 -1.0088e-05 0 -0.00020658 0 9.97682 0 0.001415 
1 1 4.04275e-17 0 -8.82895e-10 4.49197e-15 0 -9.81e-08 0 0 0 0 0 0 0.001415 
2 1 0.00283 0 -3.91613e-06 -1.06393e-06 0 -8.82209e-05 -1.14068e-09 0 -9.36373e-07 0 0.0676427 0 0.001415 
3 1 0.00565997 0 -1.55435e-05 -3.25917e-06 0 -0.00039148 -1.20127e-08 0 -3.61502e-06 0 0.152037 0 0.001415 
4 1 0.0084899 0 -3.47394e-05 -8.05298e-06 0 -0.000957241 -4.09302e-08 0 -7.88202e-06 0 0.253154 0 0.001415 
5 1 0.0113198 0 -6.13599e-05 -1.72517e-05 0 -0.00183276 -9.46626e-08 0 -1.35836e-05 0 0.370948 0 0.001415 
6 1 0.0141496 0 -9.52612e-05 -3.29845e-05 0 -0.00306511 -1.78887e-07 0 -2.05666e-05 0 0.50534 0 0.001415 
7 1 0.0169793 0 -0.000136299 -5.76855e-05 0 -0.0047011 -2.97614e-07 0 -2.86784e-05 0 0.656218 0 0.001415 
8 1 0.0198089 0 -0.00018433 -9.40751e-05 0 -0.00678712 -4.53827e-07 0 -3.77679e-05 0 0.823424 0 0.001415 
9 1 0.0226383 0 -0.00023921 -0.000145139 0 -0.00936907 -6.49321e-07 0 -4.76854e-05 0 1.00675 0 0.001415 
10 1 0.0254677 0 -0.000300794 -0.000214107 0 -0.0124921 -8.84814e-07 0 -5.82837e-05 0 1.20594 0 0.001415 
11 1 0.0282968 0 -0.000368938 -0.000304426 0 -0.0162007 -1.15971e-06 0 -6.94182e-05 0 1.42066 0 0.001415 
12 1 0.0311259 0 -0.000443498 -0.000419738 0 -0.0205382 -1.47313e-06 0 -8.09476e-05 0 1.65054 0 0.001415 
13 1 0.0339547 0 -0.000524329 -0.00056385 0 -0.0255467 -1.82259e-06 0 -9.27347e-05 0 1.89512 0 0.001415 
14 1 0.0367834 0 -0.000611287 -0.000740704 0 -0.031267 -2.20547e-06 0 -0.000104646 0 2.1539 0 0.001415 
15 1 0.0396118 0 -0.000704225 -0.000954347 0 -0.0377384 -2.61837e-06 0 -0.000116555 0 2.42629 0 0.001415 
16 1 0.0424401 0 -0.000803001 -0.0012089 0 -0.0449984 -3.05703e-06 0 -0.000128338 0 2.71164 0 0.001415 
17 1 0.0452682 0 -0.000907467 -0.00150853 0 -0.0530825 -3.51718e-06 0 -0.000139879 0 3.00925 0 0.001415 
18 1 0.048096 0 -0.00101748 -0.00185739 0 -0.0620242 -3.99407e-06 0 -0.000151068 0 3.31832 0 0.001415 
19 1 0.0509237 0 -0.00113289 -0.00225963 0 -0.0718546 -4.48243e-06 0 -0.000161803 0 3.63803 0 0.001415 
20 1 0.0537511 0 -0.00125356 -0.00271932 0 -0.0826024 -4.97739e-06 0 -0.000171988 0 3.96746 0 0.001415 
21 1 0.0565783 0 -0.00137934 -0.00324042 0 -0.0942935 -5.47349e-06 0 -0.000181534 0 4.30566 0 0.001415 
22 1 0.0594053 0 -0.00151007 -0.00382679 0 -0.106951 -5.96545e-06 0 -0.000190362 0 4.65161 0 0.001415 
23 1 0.062232 0 -0.00164563 -0.0044821 0 -0.120596 -6.44842e-06 0 -0.000198399 0 5.00426 0 0.001415 
24 1 0.0650586 0 -0.00178585 -0.0052098 0 -0.135244 -6.91701e-06 0 -0.000205582 0 5.36249 0 0.001415 
25 1 0.0678849 0 -0.0019306 -0.00601313 0 -0.150911 -7.36722e-06 0 -0.000211854 0 5.72517 0 0.001415 
