ITEM: TIMESTEP
2500000
ITEM: NUMBER OF ATOMS
56
ITEM: BOX BOUNDS ff ff ff
-0.1 0.171215
-0.171215 0.171215
-0.171215 0.171215
ITEM: ATOMS id type x y z vx vy vz fx fy fz omegax omegay omegaz radius 
56 1 0.154943 0 -0.0135105 0.00162737 0 0.00222164 7.15167e-05 0 7.19184e-05 0 -0.527375 0 0.001415 
51 1 0.140911 0 -0.0116826 0.000672328 0 -0.00510998 3.50346e-05 0 -0.000206146 0 -0.509311 0 0.001415 
52 1 0.143718 0 -0.0120476 0.000859803 0 -0.00366818 4.2423e-05 0 -0.00015 0 -0.51715 0 0.001415 
53 1 0.146524 0 -0.0124131 0.00105005 0 -0.00220778 4.98476e-05 0 -9.36568e-05 0 -0.522582 0 0.001415 
54 1 0.14933 0 -0.0127789 0.00124208 0 -0.000735256 5.72288e-05 0 -3.76832e-05 0 -0.525788 0 0.001415 
55 1 0.152137 0 -0.0131447 0.00143455 0 0.000742092 6.43941e-05 0 1.72781e-05 0 -0.527037 0 0.001415 
46 1 0.126877 0 -0.00987587 -0.000187688 0 -0.0117964 5.59914e-07 0 -0.0004704 0 -0.432811 0 0.001415 
47 1 0.129685 0 -0.0102339 -2.92955e-05 0 -0.0105519 6.97559e-06 0 -0.000420807 0 -0.452912 0 0.001415 
48 1 0.132492 0 -0.0105938 0.000136846 0 -0.00925421 1.36725e-05 0 -0.000369289 0 -0.470709 0 0.001415 
49 1 0.135298 0 -0.0109555 0.000309822 0 -0.00791005 2.06095e-05 0 -0.000316136 0 -0.486087 0 0.001415 
50 1 0.138105 0 -0.0113185 0.000488655 0 -0.00652629 2.77458e-05 0 -0.000261647 0 -0.498965 0 0.001415 
40 1 0.110027 0 -0.00778395 -0.000934553 0 -0.0178263 -3.01339e-05 0 -0.000712624 0 -0.27241 0 0.001415 
41 1 0.112836 0 -0.00812456 -0.000837132 0 -0.0170172 -2.60853e-05 0 -0.000680029 0 -0.303052 0 0.001415 
42 1 0.115645 0 -0.00846874 -0.000728293 0 -0.0161238 -2.15804e-05 0 -0.000644044 0 -0.332355 0 0.001415 
43 1 0.118454 0 -0.00881624 -0.00060841 0 -0.0151504 -1.66376e-05 0 -0.000604859 0 -0.360151 0 0.001415 
44 1 0.121262 0 -0.00916677 -0.000477954 0 -0.0141013 -1.12801e-05 0 -0.000562693 0 -0.38627 0 0.001415 
45 1 0.12407 0 -0.00952008 -0.000337492 0 -0.0129815 -5.53702e-06 0 -0.000517786 0 -0.410545 0 0.001415 
34 1 0.0931596 0 -0.00583042 -0.00127057 0 -0.0207492 -4.44426e-05 0 -0.000829991 0 -0.0701727 0 0.001415 
35 1 0.0959722 0 -0.00614396 -0.00124409 0 -0.0205024 -4.32395e-05 0 -0.000820125 0 -0.10516 0 0.001415 
36 1 0.0987842 0 -0.00646267 -0.00120597 0 -0.0201576 -4.15727e-05 0 -0.000806321 0 -0.139887 0 0.001415 
37 1 0.101596 0 -0.00678628 -0.00115603 0 -0.0197157 -3.94326e-05 0 -0.000788605 0 -0.17416 0 0.001415 
38 1 0.104407 0 -0.00711455 -0.00109413 0 -0.0191784 -3.6813e-05 0 -0.000767029 0 -0.207791 0 0.001415 
39 1 0.107217 0 -0.00744719 -0.00102028 0 -0.0185477 -3.37122e-05 0 -0.000741668 0 -0.240599 0 0.001415 
28 1 0.0762711 0 -0.00407219 -0.00120813 0 -0.0201842 -4.29119e-05 0 -0.000807678 0 0.133485 0 0.001415 
29 1 0.0790875 0 -0.00434932 -0.00124209 0 -0.0205154 -4.40948e-05 0 -0.000820819 0 0.101372 0 0.001415 
30 1 0.0819032 0 -0.00463314 -0.0012675 0 -0.0207545 -4.49408e-05 0 -0.000830295 0 0.068234 0 0.001415 
31 1 0.0847183 0 -0.00492342 -0.00128366 0 -0.0208991 -4.5423e-05 0 -0.000836015 0 0.0342917 0 0.001415 
32 1 0.0875327 0 -0.00521989 -0.00128992 0 -0.0209471 -4.55153e-05 0 -0.000837907 0 -0.000235147 0 0.001415 
33 1 0.0903465 0 -0.00552231 -0.00128571 0 -0.0208974 -4.51954e-05 0 -0.000835913 0 -0.0351282 0 0.001415 
19 1 0.0508929 0 -0.00192042 -0.000661636 0 -0.0137759 -2.27285e-05 0 -0.000551934 0 0.342154 0 0.001415 
20 1 0.0537154 0 -0.00212617 -0.000732523 0 -0.0147236 -2.53746e-05 0 -0.00058988 0 0.328391 0 0.001415 
21 1 0.0565372 0 -0.00234081 -0.000803094 0 -0.0156283 -2.80081e-05 0 -0.000626069 0 0.311869 0 0.001415 
22 1 0.0593584 0 -0.00256411 -0.000872408 0 -0.0164824 -3.05918e-05 0 -0.000660201 0 0.292747 0 0.001415 
23 1 0.0621789 0 -0.00279582 -0.000939503 0 -0.0172788 -3.30868e-05 0 -0.000691996 0 0.271193 0 0.001415 
24 1 0.0649987 0 -0.00303571 -0.00100341 0 -0.018011 -3.5455e-05 0 -0.000721196 0 0.247386 0 0.001415 
25 1 0.0678178 0 -0.00328354 -0.00106316 0 -0.0186728 -3.76587e-05 0 -0.000747566 0 0.221512 0 0.001415 
26 1 0.0706363 0 -0.00353906 -0.00111781 0 -0.0192588 -3.96597e-05 0 -0.000770894 0 0.193768 0 0.001415 
27 1 0.073454 0 -0.00380203 -0.00116643 0 -0.0197641 -4.14226e-05 0 -0.000790988 0 0.164355 0 0.001415 
1 1 1.12299e-16 0 -2.45249e-09 4.49197e-15 0 -9.81e-08 0 0 0 0 0 0 0.001415 
2 1 0.00282998 0 -6.57144e-06 -2.43922e-06 0 -7.40627e-05 1.23087e-07 0 -2.92114e-06 0 0.0508521 0 0.001415 
3 1 0.00565991 0 -2.60992e-05 -6.16686e-06 0 -0.000286661 1.94818e-07 0 -1.13587e-05 0 0.0979669 0 0.001415 
4 1 0.00848972 0 -5.83678e-05 -1.23017e-05 0 -0.000627238 1.7023e-07 0 -2.49045e-05 0 0.1413 0 0.001415 
5 1 0.0113194 0 -0.000103158 -2.17874e-05 0 -0.00108502 1.12738e-08 0 -4.31431e-05 0 0.180817 0 0.001415 
6 1 0.0141488 0 -0.000160251 -3.53957e-05 0 -0.00164915 -3.13393e-07 0 -6.56526e-05 0 0.216492 0 0.001415 
7 1 0.0169779 0 -0.000229426 -5.37305e-05 0 -0.00230869 -8.28566e-07 0 -9.20055e-05 0 0.248311 0 0.001415 
8 1 0.0198067 0 -0.000310461 -7.72333e-05 0 -0.0030527 -1.55226e-06 0 -0.00012177 0 0.276275 0 0.001415 
9 1 0.0226352 0 -0.000403135 -0.000106189 0 -0.00387027 -2.49665e-06 0 -0.000154512 0 0.300396 0 0.001415 
10 1 0.0254633 0 -0.000507223 -0.000140732 0 -0.00475052 -3.66728e-06 0 -0.000189796 0 0.320702 0 0.001415 
11 1 0.0282909 0 -0.000622503 -0.000180854 0 -0.00568268 -5.06432e-06 0 -0.000227187 0 0.337231 0 0.001415 
12 1 0.0311181 0 -0.00074875 -0.000226414 0 -0.00665612 -6.68206e-06 0 -0.000266253 0 0.350035 0 0.001415 
13 1 0.0339448 0 -0.000885736 -0.000277143 0 -0.00766035 -8.50966e-06 0 -0.000306568 0 0.359178 0 0.001415 
14 1 0.0367709 0 -0.00103324 -0.000332657 0 -0.00868512 -1.05317e-05 0 -0.000347713 0 0.364737 0 0.001415 
15 1 0.0395965 0 -0.00119102 -0.000392464 0 -0.0097204 -1.27281e-05 0 -0.000389277 0 0.366796 0 0.001415 
16 1 0.0424215 0 -0.00135886 -0.000455978 0 -0.0107564 -1.50749e-05 0 -0.00043086 0 0.365454 0 0.001415 
17 1 0.0452459 0 -0.00153653 -0.000522522 0 -0.0117837 -1.75446e-05 0 -0.000472076 0 0.36082 0 0.001415 
18 1 0.0480697 0 -0.00172379 -0.000591346 0 -0.0127931 -2.01069e-05 0 -0.000512553 0 0.35301 0 0.001415 
