ITEM: TIMESTEP
1300000
ITEM: NUMBER OF ATOMS
56
ITEM: BOX BOUNDS ff ff ff
-0.1 0.171215
-0.171215 0.171215
-0.171215 0.171215
ITEM: ATOMS id type x y z vx vy vz fx fy fz omegax omegay omegaz radius 
55 1 0.152284 0 -0.0116669 -0.0905466 0 -0.991914 1.75462e-05 0 3.42138e-05 0 9.39432 0 0.001415 
56 1 0.155095 0 -0.0119897 -0.0935789 0 -1.01833 2.06689e-05 0 6.46588e-05 0 9.39431 0 0.001415 
49 1 0.135414 0 -0.00973502 -0.0724268 0 -0.833738 -7.85209e-07 0 -0.000145202 0 9.32822 0 0.001415 
50 1 0.138226 0 -0.0100554 -0.0754207 0 -0.860003 2.13675e-06 0 -0.000116346 0 9.35213 0 0.001415 
51 1 0.141038 0 -0.0103768 -0.0784304 0 -0.886327 5.13862e-06 0 -8.6868e-05 0 9.37067 0 0.001415 
52 1 0.143849 0 -0.0106988 -0.0814518 0 -0.912694 8.19954e-06 0 -5.69198e-05 0 9.38387 0 0.001415 
53 1 0.146661 0 -0.0110213 -0.084481 0 -0.939091 1.13015e-05 0 -2.66551e-05 0 9.39176 0 0.001415 
54 1 0.149472 0 -0.0113441 -0.0875142 0 -0.965502 1.44241e-05 0 3.77039e-06 0 9.39436 0 0.001415 
43 1 0.11854 0 -0.00784581 -0.055008 0 -0.678226 -1.57041e-05 0 -0.000297407 0 9.06893 0 0.001415 
44 1 0.121353 0 -0.00815555 -0.0578273 0 -0.70382 -1.3604e-05 0 -0.000275186 0 9.12629 0 0.001415 
45 1 0.124165 0 -0.00846766 -0.0606852 0 -0.729565 -1.13312e-05 0 -0.000251543 0 9.17788 0 0.001415 
46 1 0.126978 0 -0.00878189 -0.0635778 0 -0.755445 -8.89889e-06 0 -0.000226595 0 9.22379 0 0.001415 
47 1 0.12979 0 -0.00909802 -0.0665015 0 -0.781444 -6.31978e-06 0 -0.000200467 0 9.26411 0 0.001415 
48 1 0.132602 0 -0.00941581 -0.0694524 0 -0.807547 -3.60961e-06 0 -0.000173291 0 9.2989 0 0.001415 
37 1 0.101655 0 -0.00605014 -0.0391004 0 -0.528754 -2.42006e-05 0 -0.000395435 0 8.59821 0 0.001415 
38 1 0.10447 0 -0.00634078 -0.0416145 0 -0.553094 -2.33008e-05 0 -0.000383699 0 8.69229 0 0.001415 
39 1 0.107284 0 -0.00663518 -0.0441879 0 -0.577685 -2.21904e-05 0 -0.000370033 0 8.77997 0 0.001415 
40 1 0.110099 0 -0.00693312 -0.0468173 0 -0.602512 -2.08709e-05 0 -0.000354495 0 8.86136 0 0.001415 
41 1 0.112913 0 -0.00723436 -0.0494995 0 -0.627555 -1.93456e-05 0 -0.000337157 0 8.93657 0 0.001415 
42 1 0.115726 0 -0.00753867 -0.0522309 0 -0.652799 -1.76211e-05 0 -0.000318097 0 9.00573 0 0.001415 
29 1 0.0791185 0 -0.00388829 -0.0214744 0 -0.345378 -2.41825e-05 0 -0.000416698 0 7.59952 0 0.001415 
30 1 0.0819372 0 -0.00414051 -0.0234115 0 -0.367014 -2.48196e-05 0 -0.000421087 0 7.7495 0 0.001415 
31 1 0.0847554 0 -0.00439833 -0.0254294 0 -0.389058 -2.52955e-05 0 -0.000423509 0 7.89203 0 0.001415 
32 1 0.0875732 0 -0.00466153 -0.0275258 0 -0.411489 -2.5598e-05 0 -0.000423926 0 8.02725 0 0.001415 
33 1 0.0903904 0 -0.00492988 -0.0296985 0 -0.434288 -2.57165e-05 0 -0.000422311 0 8.15528 0 0.001415 
34 1 0.0932072 0 -0.00520314 -0.031945 0 -0.457433 -2.56427e-05 0 -0.000418649 0 8.27626 0 0.001415 
35 1 0.0960235 0 -0.00548109 -0.0342627 0 -0.480905 -2.53684e-05 0 -0.00041294 0 8.39033 0 0.001415 
36 1 0.0988394 0 -0.0057635 -0.0366488 0 -0.504685 -2.48891e-05 0 -0.000405194 0 8.4976 0 0.001415 
21 1 0.0565497 0 -0.00209911 -0.00906409 0 -0.189618 -1.50638e-05 0 -0.000319627 0 6.11688 0 0.001415 
22 1 0.0593726 0 -0.00229844 -0.0103062 0 -0.207191 -1.64389e-05 0 -0.000336847 0 6.33076 0 0.001415 
23 1 0.0621951 0 -0.00250517 -0.0116376 0 -0.225353 -1.77818e-05 0 -0.000352856 0 6.53628 0 0.001415 
24 1 0.065017 0 -0.00271907 -0.0130583 0 -0.24408 -1.90749e-05 0 -0.000367517 0 6.73352 0 0.001415 
25 1 0.0678383 0 -0.00293991 -0.0145677 0 -0.263348 -2.02997e-05 0 -0.000380709 0 6.9226 0 0.001415 
26 1 0.0706592 0 -0.00316748 -0.0161651 0 -0.283135 -2.14397e-05 0 -0.000392318 0 7.10362 0 0.001415 
27 1 0.0734795 0 -0.00340154 -0.0178496 0 -0.303417 -2.24777e-05 0 -0.000402243 0 7.2767 0 0.001415 
28 1 0.0762992 0 -0.00364189 -0.0196198 0 -0.324172 -2.33967e-05 0 -0.000410396 0 7.44196 0 0.001415 
1 1 5.83953e-17 0 -1.27529e-09 4.49197e-15 0 -9.81e-08 0 0 0 0 0 0 0.001415 
2 1 0.00282999 0 -5.93805e-06 -2.5455e-06 0 -0.000555946 -4.05933e-10 0 -1.5332e-06 0 0.389875 0 0.001415 
3 1 0.00565993 0 -2.35748e-05 -1.41765e-05 0 -0.00220277 -2.62575e-08 0 -5.942e-06 0 0.771023 0 0.001415 
4 1 0.00848977 0 -5.27008e-05 -4.34557e-05 0 -0.00491575 -9.95797e-08 0 -1.29946e-05 0 1.1434 0 0.001415 
5 1 0.0113195 0 -9.31047e-05 -9.84035e-05 0 -0.00866986 -2.38924e-07 0 -2.24593e-05 0 1.50697 0 0.001415 
6 1 0.014149 0 -0.000144575 -0.000186507 0 -0.01344 -4.59413e-07 0 -3.41049e-05 0 1.8617 0 0.001415 
7 1 0.0169783 0 -0.000206899 -0.00031473 0 -0.0192008 -7.72985e-07 0 -4.77009e-05 0 2.20756 0 0.001415 
8 1 0.0198074 0 -0.000279864 -0.000489519 0 -0.025927 -1.18845e-06 0 -6.3018e-05 0 2.54451 0 0.001415 
9 1 0.0226361 0 -0.000363257 -0.000716819 0 -0.033593 -1.71135e-06 0 -7.98283e-05 0 2.87255 0 0.001415 
10 1 0.0254646 0 -0.000456865 -0.00100208 0 -0.0421735 -2.34486e-06 0 -9.79061e-05 0 3.19166 0 0.001415 
11 1 0.0282927 0 -0.000560472 -0.00135027 0 -0.0516426 -3.08886e-06 0 -0.000117028 0 3.50184 0 0.001415 
12 1 0.0311204 0 -0.000673866 -0.00176587 0 -0.061975 -3.94126e-06 0 -0.000136975 0 3.80309 0 0.001415 
13 1 0.0339477 0 -0.00079683 -0.00225294 0 -0.073145 -4.89716e-06 0 -0.000157529 0 4.09541 0 0.001415 
14 1 0.0367746 0 -0.000929149 -0.00281504 0 -0.0851272 -5.94955e-06 0 -0.00017848 0 4.37884 0 0.001415 
15 1 0.0396011 0 -0.00107061 -0.00345534 0 -0.097896 -7.08968e-06 0 -0.000199619 0 4.65339 0 0.001415 
16 1 0.0424271 0 -0.00122099 -0.00417655 0 -0.111426 -8.30646e-06 0 -0.000220747 0 4.9191 0 0.001415 
17 1 0.0452526 0 -0.00138007 -0.00498101 0 -0.125692 -9.5878e-06 0 -0.000241667 0 5.17601 0 0.001415 
18 1 0.0480776 0 -0.00154765 -0.00587063 0 -0.140669 -1.09196e-05 0 -0.000262192 0 5.42419 0 0.001415 
19 1 0.0509022 0 -0.00172349 -0.00684696 0 -0.156332 -1.2287e-05 0 -0.00028214 0 5.66368 0 0.001415 
20 1 0.0537262 0 -0.00190738 -0.00791117 0 -0.172657 -1.3674e-05 0 -0.00030134 0 5.89455 0 0.001415 
