ITEM: TIMESTEP
3100000
ITEM: NUMBER OF ATOMS
56
ITEM: BOX BOUNDS ff ff ff
-0.1 0.171215
-0.171215 0.171215
-0.171215 0.171215
ITEM: ATOMS id type x y z vx vy vz fx fy fz omegax omegay omegaz radius 
1 1 1.39251e-16 0 -3.04109e-09 4.49197e-15 0 -9.81e-08 0 0 0 0 0 0 0.001415 
2 1 0.00283 0 2.15519e-06 6.09983e-06 0 -0.0061912 -2.64716e-08 0 6.947e-06 0 4.32328 0 0.001415 
3 1 0.00565999 0 8.55249e-06 4.85509e-05 0 -0.0243871 -2.44989e-07 0 2.6594e-05 0 8.48401 0 0.001415 
4 1 0.00848998 0 1.90938e-05 0.000160591 0 -0.0541278 -8.23864e-07 0 5.75104e-05 0 12.4823 0 0.001415 
5 1 0.0113199 0 3.3684e-05 0.000372277 0 -0.0949535 -1.90728e-06 0 9.82666e-05 0 16.3182 0 0.001415 
6 1 0.0141499 0 5.22281e-05 0.000710579 0 -0.146405 -3.61637e-06 0 0.000147436 0 19.9922 0 0.001415 
7 1 0.0169798 0 7.46311e-05 0.00119948 0 -0.208024 -6.05009e-06 0 0.000203599 0 23.5046 0 0.001415 
8 1 0.0198097 0 0.000100798 0.00186009 0 -0.279354 -9.2867e-06 0 0.000265343 0 26.8561 0 0.001415 
9 1 0.0226395 0 0.000130634 0.00271073 0 -0.35994 -1.33844e-05 0 0.000331272 0 30.0475 0 0.001415 
10 1 0.0254693 0 0.000164043 0.00376705 0 -0.449331 -1.83829e-05 0 0.000400006 0 33.08 0 0.001415 
11 1 0.0282991 0 0.00020093 0.00504214 0 -0.547079 -2.43045e-05 0 0.000470188 0 35.955 0 0.001415 
12 1 0.0311288 0 0.000241201 0.00654667 0 -0.652738 -3.11554e-05 0 0.000540487 0 38.674 0 0.001415 
13 1 0.0339585 0 0.000284758 0.00828896 0 -0.765871 -3.89273e-05 0 0.000609606 0 41.2391 0 0.001415 
14 1 0.0367881 0 0.000331506 0.0102751 0 -0.886045 -4.75984e-05 0 0.000676285 0 43.6526 0 0.001415 
15 1 0.0396176 0 0.000381349 0.0125093 0 -1.01283 -5.71348e-05 0 0.000739309 0 45.9168 0 0.001415 
16 1 0.0424472 0 0.000434191 0.0149935 0 -1.14582 -6.74922e-05 0 0.000797509 0 48.0348 0 0.001415 
17 1 0.0452766 0 0.000489934 0.0177281 0 -1.28459 -7.86177e-05 0 0.00084977 0 50.0097 0 0.001415 
18 1 0.048106 0 0.000548481 0.0207118 0 -1.42874 -9.04496e-05 0 0.000895038 0 51.845 0 0.001415 
19 1 0.0509353 0 0.000609735 0.0239415 0 -1.5779 -0.000102921 0 0.000932319 0 53.5444 0 0.001415 
20 1 0.0537646 0 0.000673599 0.0274131 0 -1.73166 -0.00011596 0 0.000960689 0 55.112 0 0.001415 
21 1 0.0565938 0 0.000739973 0.0311208 0 -1.88968 -0.000129491 0 0.000979297 0 56.552 0 0.001415 
22 1 0.059423 0 0.000808761 0.0350581 0 -2.05159 -0.000143436 0 0.000987366 0 57.8692 0 0.001415 
23 1 0.0622521 0 0.000879862 0.0392173 0 -2.21706 -0.000157717 0 0.0009842 0 59.0682 0 0.001415 
24 1 0.0650812 0 0.00095318 0.0435897 0 -2.38576 -0.000172254 0 0.000969186 0 60.1541 0 0.001415 
25 1 0.0679102 0 0.00102861 0.0481662 0 -2.55736 -0.000186971 0 0.000941794 0 61.1321 0 0.001415 
26 1 0.0707391 0 0.00110607 0.0529367 0 -2.73159 -0.000201794 0 0.000901584 0 62.0077 0 0.001415 
27 1 0.073568 0 0.00118544 0.0578911 0 -2.90814 -0.00021665 0 0.000848201 0 62.7863 0 0.001415 
28 1 0.0763968 0 0.00126663 0.0630186 0 -3.08677 -0.000231472 0 0.000781381 0 63.4735 0 0.001415 
29 1 0.0792256 0 0.00134955 0.0683082 0 -3.26721 -0.000246198 0 0.000700949 0 64.0751 0 0.001415 
30 1 0.0820544 0 0.00143409 0.073749 0 -3.44923 -0.00026077 0 0.00060682 0 64.5969 0 0.001415 
31 1 0.084883 0 0.00152016 0.0793298 0 -3.63262 -0.000275138 0 0.000498994 0 65.0447 0 0.001415 
32 1 0.0877117 0 0.00160767 0.0850396 0 -3.81718 -0.000289256 0 0.000377558 0 65.4244 0 0.001415 
33 1 0.0905403 0 0.00169651 0.0908675 0 -4.00272 -0.000303085 0 0.000242685 0 65.7416 0 0.001415 
34 1 0.0933689 0 0.00178659 0.096803 0 -4.18906 -0.000316595 0 9.46268e-05 0 66.0021 0 0.001415 
35 1 0.0961974 0 0.00187783 0.102836 0 -4.37607 -0.00032976 0 -6.62886e-05 0 66.2115 0 0.001415 
36 1 0.0990259 0 0.00197013 0.108956 0 -4.5636 -0.000342561 0 -0.000239659 0 66.3754 0 0.001415 
37 1 0.101854 0 0.0020634 0.115153 0 -4.75153 -0.000354988 0 -0.000425014 0 66.499 0 0.001415 
38 1 0.104683 0 0.00215755 0.121419 0 -4.93976 -0.000367034 0 -0.000621822 0 66.5876 0 0.001415 
39 1 0.107511 0 0.0022525 0.127746 0 -5.1282 -0.000378701 0 -0.000829495 0 66.646 0 0.001415 
40 1 0.11034 0 0.00234817 0.134125 0 -5.31675 -0.000389995 0 -0.00104739 0 66.6791 0 0.001415 
41 1 0.113168 0 0.00244448 0.140548 0 -5.50537 -0.000400927 0 -0.00127483 0 66.6912 0 0.001415 
42 1 0.115996 0 0.00254136 0.147009 0 -5.694 -0.000411514 0 -0.0015111 0 66.6866 0 0.001415 
43 1 0.118825 0 0.00263873 0.153502 0 -5.88259 -0.000421775 0 -0.00175545 0 66.6691 0 0.001415 
44 1 0.121653 0 0.00273652 0.160021 0 -6.07112 -0.000431734 0 -0.00200711 0 66.6423 0 0.001415 
45 1 0.124481 0 0.00283467 0.166562 0 -6.25956 -0.000441416 0 -0.00226532 0 66.6093 0 0.001415 
46 1 0.12731 0 0.00293313 0.173118 0 -6.4479 -0.000450851 0 -0.0025293 0 66.573 0 0.001415 
47 1 0.130138 0 0.00303183 0.179688 0 -6.63613 -0.000460069 0 -0.00279827 0 66.5359 0 0.001415 
48 1 0.132966 0 0.00313073 0.186267 0 -6.82426 -0.000469098 0 -0.00307151 0 66.5001 0 0.001415 
49 1 0.135794 0 0.00322978 0.192852 0 -7.0123 -0.000477969 0 -0.00334827 0 66.4671 0 0.001415 
50 1 0.138623 0 0.00332895 0.199443 0 -7.20024 -0.000486712 0 -0.00362788 0 66.4383 0 0.001415 
51 1 0.141451 0 0.0034282 0.206036 0 -7.38811 -0.000495356 0 -0.0039097 0 66.4146 0 0.001415 
52 1 0.144279 0 0.00352751 0.212631 0 -7.57592 -0.000503924 0 -0.00419317 0 66.3962 0 0.001415 
53 1 0.147107 0 0.00362686 0.219227 0 -7.76368 -0.000512439 0 -0.00447776 0 66.3833 0 0.001415 
54 1 0.149936 0 0.00372624 0.225824 0 -7.95142 -0.000520922 0 -0.00476306 0 66.3754 0 0.001415 
55 1 0.152764 0 0.00382565 0.232422 0 -8.13914 -0.000529386 0 -0.00504873 0 66.3716 0 0.001415 
56 1 0.155592 0 0.00392507 0.23902 0 -8.32685 -0.000537844 0 -0.00533453 0 66.3706 0 0.001415 
