ITEM: TIMESTEP
11400000
ITEM: NUMBER OF ATOMS
56
ITEM: BOX BOUNDS ff ff ff
-0.1 0.171215
-0.171215 0.171215
-0.171215 0.171215
ITEM: ATOMS id type x y z vx vy vz fx fy fz omegax omegay omegaz radius 
1 1 5.12084e-16 0 -1.11834e-08 4.49197e-15 0 -9.81e-08 0 0 0 0 0 0 0.001415 
2 1 0.00283 0 2.90187e-06 -2.82779e-06 0 0.00199599 3.17652e-10 0 -2.26939e-06 0 -1.39934 0 0.001415 
3 1 0.00565999 0 1.15048e-05 -2.15323e-05 0 0.00790262 2.50652e-09 0 -8.98374e-06 0 -2.76366 0 0.001415 
4 1 0.00848995 0 2.56328e-05 -7.07722e-05 0 0.0176206 8.21037e-09 0 -2.00296e-05 0 -4.09295 0 0.001415 
5 1 0.0113199 0 4.51209e-05 -0.00016396 0 0.0310507 1.88164e-08 0 -3.52936e-05 0 -5.3872 0 0.001415 
6 1 0.0141498 0 6.98046e-05 -0.000313296 0 0.0480937 3.55572e-08 0 -5.46625e-05 0 -6.64643 0 0.001415 
7 1 0.0169796 0 9.95191e-05 -0.000529805 0 0.0686502 5.93552e-08 0 -7.80231e-05 0 -7.87064 0 0.001415 
8 1 0.0198094 0 0.0001341 -0.000823375 0 0.0926211 9.1061e-08 0 -0.000105262 0 -9.05986 0 0.001415 
9 1 0.0226391 0 0.000173384 -0.00120279 0 0.119907 1.31137e-07 0 -0.000136268 0 -10.2141 0 0.001415 
10 1 0.0254688 0 0.000217207 -0.00167577 0 0.150409 1.80069e-07 0 -0.000170926 0 -11.3334 0 0.001415 
11 1 0.0282984 0 0.000265406 -0.00224901 0 0.184028 2.38062e-07 0 -0.000209125 0 -12.4179 0 0.001415 
12 1 0.0311279 0 0.000317819 -0.00292823 0 0.220666 3.05289e-07 0 -0.000250753 0 -13.4676 0 0.001415 
13 1 0.0339573 0 0.000374284 -0.00371819 0 0.260223 3.81471e-07 0 -0.000295697 0 -14.4825 0 0.001415 
14 1 0.0367867 0 0.000434641 -0.00462276 0 0.302602 4.6663e-07 0 -0.000343846 0 -15.4629 0 0.001415 
15 1 0.039616 0 0.00049873 -0.00564494 0 0.347705 5.60309e-07 0 -0.000395089 0 -16.4088 0 0.001415 
16 1 0.0424452 0 0.000566393 -0.00678691 0 0.395434 6.62033e-07 0 -0.000449315 0 -17.3204 0 0.001415 
17 1 0.0452743 0 0.000637473 -0.00805009 0 0.445691 7.71494e-07 0 -0.000506415 0 -18.1978 0 0.001415 
18 1 0.0481033 0 0.000711815 -0.00943516 0 0.498382 8.87783e-07 0 -0.000566277 0 -19.0412 0 0.001415 
19 1 0.0509322 0 0.000789265 -0.0109421 0 0.553409 1.0104e-06 0 -0.000628794 0 -19.8508 0 0.001415 
20 1 0.0537611 0 0.000869671 -0.0125703 0 0.610677 1.13859e-06 0 -0.000693858 0 -20.627 0 0.001415 
21 1 0.0565899 0 0.000952884 -0.0143185 0 0.670092 1.27144e-06 0 -0.00076136 0 -21.3698 0 0.001415 
22 1 0.0594186 0 0.00103876 -0.016185 0 0.73156 1.4084e-06 0 -0.000831195 0 -22.0798 0 0.001415 
23 1 0.0622472 0 0.00112714 -0.0181673 0 0.794988 1.54804e-06 0 -0.000903257 0 -22.757 0 0.001415 
24 1 0.0650757 0 0.0012179 -0.0202628 0 0.860284 1.69032e-06 0 -0.000977442 0 -23.4019 0 0.001415 
25 1 0.0679042 0 0.00131089 -0.0224683 0 0.927357 1.83353e-06 0 -0.00105365 0 -24.015 0 0.001415 
26 1 0.0707326 0 0.00140598 -0.0247803 0 0.996118 1.97727e-06 0 -0.00113177 0 -24.5965 0 0.001415 
27 1 0.0735609 0 0.00150303 -0.0271949 0 1.06648 2.12087e-06 0 -0.00121171 0 -25.1469 0 0.001415 
28 1 0.0763892 0 0.00160191 -0.0297079 0 1.13835 2.26295e-06 0 -0.00129336 0 -25.6667 0 0.001415 
29 1 0.0792174 0 0.00170249 -0.032315 0 1.21164 2.40309e-06 0 -0.00137664 0 -26.1563 0 0.001415 
30 1 0.0820456 0 0.00180465 -0.0350115 0 1.28628 2.54073e-06 0 -0.00146144 0 -26.6164 0 0.001415 
31 1 0.0848737 0 0.00190828 -0.0377927 0 1.36218 2.67467e-06 0 -0.00154767 0 -27.0475 0 0.001415 
32 1 0.0877017 0 0.00201325 -0.0406538 0 1.43925 2.80477e-06 0 -0.00163524 0 -27.4502 0 0.001415 
33 1 0.0905297 0 0.00211945 -0.0435897 0 1.51743 2.93012e-06 0 -0.00172405 0 -27.8252 0 0.001415 
34 1 0.0933577 0 0.00222677 -0.0465955 0 1.59662 3.0505e-06 0 -0.00181403 0 -28.1731 0 0.001415 
35 1 0.0961856 0 0.00233512 -0.0496662 0 1.67676 3.16527e-06 0 -0.00190508 0 -28.4946 0 0.001415 
36 1 0.0990135 0 0.00244439 -0.0527967 0 1.75777 3.27408e-06 0 -0.00199712 0 -28.7904 0 0.001415 
37 1 0.101841 0 0.00255449 -0.0559821 0 1.83958 3.37674e-06 0 -0.00209007 0 -29.0615 0 0.001415 
38 1 0.104669 0 0.00266533 -0.0592176 0 1.92212 3.47318e-06 0 -0.00218385 0 -29.3085 0 0.001415 
39 1 0.107497 0 0.00277682 -0.0624983 0 2.00532 3.56278e-06 0 -0.00227839 0 -29.5324 0 0.001415 
40 1 0.110325 0 0.00288889 -0.0658198 0 2.08913 3.64609e-06 0 -0.0023736 0 -29.7341 0 0.001415 
41 1 0.113153 0 0.00300145 -0.0691775 0 2.17347 3.72289e-06 0 -0.00246943 0 -29.9145 0 0.001415 
42 1 0.11598 0 0.00311444 -0.0725672 0 2.2583 3.79307e-06 0 -0.00256581 0 -30.0745 0 0.001415 
43 1 0.118808 0 0.0032278 -0.0759848 0 2.34355 3.85707e-06 0 -0.00266267 0 -30.2152 0 0.001415 
44 1 0.121636 0 0.00334146 -0.0794265 0 2.42917 3.91526e-06 0 -0.00275995 0 -30.3377 0 0.001415 
45 1 0.124463 0 0.00345536 -0.0828887 0 2.51511 3.96744e-06 0 -0.00285759 0 -30.4431 0 0.001415 
46 1 0.127291 0 0.00356947 -0.0863681 0 2.60133 4.01438e-06 0 -0.00295555 0 -30.5324 0 0.001415 
47 1 0.130119 0 0.00368374 -0.0898616 0 2.68778 4.05646e-06 0 -0.00305376 0 -30.607 0 0.001415 
48 1 0.132947 0 0.00379813 -0.0933666 0 2.77442 4.09428e-06 0 -0.0031522 0 -30.6679 0 0.001415 
49 1 0.135774 0 0.00391261 -0.0968804 0 2.86121 4.1276e-06 0 -0.00325081 0 -30.7164 0 0.001415 
50 1 0.138602 0 0.00402715 -0.100401 0 2.94813 4.15837e-06 0 -0.00334955 0 -30.754 0 0.001415 
51 1 0.14143 0 0.00414173 -0.103927 0 3.03513 4.18585e-06 0 -0.0034484 0 -30.7818 0 0.001415 
52 1 0.144257 0 0.00425634 -0.107456 0 3.1222 4.21186e-06 0 -0.00354733 0 -30.8013 0 0.001415 
53 1 0.147085 0 0.00437096 -0.110988 0 3.20932 4.23603e-06 0 -0.00364631 0 -30.8138 0 0.001415 
54 1 0.149913 0 0.00448561 -0.114521 0 3.29646 4.25944e-06 0 -0.00374531 0 -30.821 0 0.001415 
55 1 0.15274 0 0.00460027 -0.118055 0 3.38362 4.28305e-06 0 -0.00384433 0 -30.8242 0 0.001415 
56 1 0.155568 0 0.00471493 -0.12159 0 3.47078 4.30673e-06 0 -0.00394336 0 -30.825 0 0.001415 
