ITEM: TIMESTEP
6200000
ITEM: NUMBER OF ATOMS
56
ITEM: BOX BOUNDS ff ff ff
-0.1 0.171215
-0.171215 0.171215
-0.171215 0.171215
ITEM: ATOMS id type x y z vx vy vz fx fy fz omegax omegay omegaz radius 
1 1 2.78502e-16 0 -6.08219e-09 4.49197e-15 0 -9.81e-08 0 0 0 0 0 0 0.001415 
2 1 0.00283 0 2.2694e-06 -4.18824e-06 0 0.00378728 -8.37498e-09 0 -1.88142e-06 0 -2.65495 0 0.001415 
3 1 0.00565999 0 8.98513e-06 -3.18883e-05 0 0.0149936 -6.33373e-08 0 -7.43935e-06 0 -5.24312 0 0.001415 
4 1 0.00848997 0 2.00074e-05 -0.000104766 0 0.0334299 -2.08149e-07 0 -1.657e-05 0 -7.76452 0 0.001415 
5 1 0.0113199 0 3.52024e-05 -0.000242599 0 0.0589071 -4.8293e-07 0 -2.91699e-05 0 -10.2192 0 0.001415 
6 1 0.0141499 0 5.44369e-05 -0.000463336 0 0.0912361 -9.24382e-07 0 -4.5136e-05 0 -12.6071 0 0.001415 
7 1 0.0169798 0 7.75773e-05 -0.000783147 0 0.130228 -1.56621e-06 0 -6.43658e-05 0 -14.9283 0 0.001415 
8 1 0.0198096 0 0.000104491 -0.00121649 0 0.175694 -2.43894e-06 0 -8.67569e-05 0 -17.1829 0 0.001415 
9 1 0.0226395 0 0.000135044 -0.00177615 0 0.227445 -3.57011e-06 0 -0.000112208 0 -19.3709 0 0.001415 
10 1 0.0254693 0 0.000169105 -0.00247333 0 0.285293 -4.98453e-06 0 -0.000140616 0 -21.4925 0 0.001415 
11 1 0.028299 0 0.000206543 -0.00331767 0 0.349049 -6.70394e-06 0 -0.000171883 0 -23.5477 0 0.001415 
12 1 0.0311287 0 0.000247225 -0.00431736 0 0.418527 -8.74762e-06 0 -0.000205905 0 -25.5367 0 0.001415 
13 1 0.0339584 0 0.000291021 -0.00547915 0 0.493538 -1.11321e-05 0 -0.000242585 0 -27.4597 0 0.001415 
14 1 0.036788 0 0.000337802 -0.00680846 0 0.573896 -1.38712e-05 0 -0.000281823 0 -29.3169 0 0.001415 
15 1 0.0396176 0 0.00038744 -0.00830942 0 0.659415 -1.69767e-05 0 -0.00032352 0 -31.1086 0 0.001415 
16 1 0.0424471 0 0.000439806 -0.00998494 0 0.74991 -2.04576e-05 0 -0.000367578 0 -32.835 0 0.001415 
17 1 0.0452766 0 0.000494774 -0.0118368 0 0.845196 -2.43213e-05 0 -0.000413901 0 -34.4966 0 0.001415 
18 1 0.048106 0 0.000552221 -0.0138656 0 0.945089 -2.85719e-05 0 -0.000462392 0 -36.0935 0 0.001415 
19 1 0.0509354 0 0.000612022 -0.0160712 0 1.04941 -3.32129e-05 0 -0.000512957 0 -37.6264 0 0.001415 
20 1 0.0537647 0 0.000674056 -0.0184521 0 1.15797 -3.82447e-05 0 -0.000565502 0 -39.0955 0 0.001415 
21 1 0.0565939 0 0.000738204 -0.0210064 0 1.2706 -4.36665e-05 0 -0.000619933 0 -40.5016 0 0.001415 
22 1 0.0594232 0 0.000804347 -0.023731 0 1.38712 -4.94755e-05 0 -0.000676161 0 -41.845 0 0.001415 
23 1 0.0622524 0 0.000872371 -0.0266223 0 1.50735 -5.56672e-05 0 -0.000734094 0 -43.1265 0 0.001415 
24 1 0.0650815 0 0.000942161 -0.029676 0 1.63111 -6.22361e-05 0 -0.000793643 0 -44.3467 0 0.001415 
25 1 0.0679106 0 0.00101361 -0.0328871 0 1.75824 -6.91744e-05 0 -0.000854723 0 -45.5063 0 0.001415 
26 1 0.0707397 0 0.0010866 -0.0362502 0 1.88857 -7.64738e-05 0 -0.000917248 0 -46.6061 0 0.001415 
27 1 0.0735687 0 0.00116104 -0.0397594 0 2.02191 -8.41248e-05 0 -0.000981133 0 -47.647 0 0.001415 
28 1 0.0763977 0 0.00123682 -0.0434085 0 2.15812 -9.21157e-05 0 -0.0010463 0 -48.6299 0 0.001415 
29 1 0.0792266 0 0.00131384 -0.0471907 0 2.29703 -0.000100435 0 -0.00111266 0 -49.5557 0 0.001415 
30 1 0.0820555 0 0.001392 -0.0510993 0 2.43848 -0.000109071 0 -0.00118015 0 -50.4255 0 0.001415 
31 1 0.0848844 0 0.00147122 -0.0551271 0 2.5823 -0.000118009 0 -0.00124868 0 -51.2404 0 0.001415 
32 1 0.0877133 0 0.00155139 -0.059267 0 2.72835 -0.000127235 0 -0.00131818 0 -52.0014 0 0.001415 
33 1 0.0905421 0 0.00163244 -0.0635115 0 2.87648 -0.000136735 0 -0.00138858 0 -52.71 0 0.001415 
34 1 0.093371 0 0.00171428 -0.0678533 0 3.02654 -0.000146493 0 -0.00145982 0 -53.3672 0 0.001415 
35 1 0.0961997 0 0.00179684 -0.0722852 0 3.17839 -0.000156494 0 -0.00153182 0 -53.9746 0 0.001415 
36 1 0.0990285 0 0.00188003 -0.0767997 0 3.33188 -0.000166722 0 -0.00160452 0 -54.5335 0 0.001415 
37 1 0.101857 0 0.00196379 -0.0813898 0 3.48689 -0.000177163 0 -0.00167786 0 -55.0454 0 0.001415 
38 1 0.104686 0 0.00204804 -0.0860484 0 3.64328 -0.000187799 0 -0.00175178 0 -55.5119 0 0.001415 
39 1 0.107515 0 0.00213274 -0.0907687 0 3.80093 -0.000198616 0 -0.00182622 0 -55.9347 0 0.001415 
40 1 0.110343 0 0.00221781 -0.0955442 0 3.95971 -0.000209597 0 -0.00190113 0 -56.3154 0 0.001415 
41 1 0.113172 0 0.0023032 -0.100368 0 4.11951 -0.000220727 0 -0.00197646 0 -56.6559 0 0.001415 
42 1 0.116001 0 0.00238886 -0.105235 0 4.28021 -0.000231992 0 -0.00205216 0 -56.9579 0 0.001415 
43 1 0.11883 0 0.00247474 -0.110139 0 4.44172 -0.000243376 0 -0.00212819 0 -57.2236 0 0.001415 
44 1 0.121658 0 0.00256081 -0.115075 0 4.60393 -0.000254867 0 -0.00220449 0 -57.4547 0 0.001415 
45 1 0.124487 0 0.00264702 -0.120037 0 4.76675 -0.000266449 0 -0.00228104 0 -57.6535 0 0.001415 
46 1 0.127316 0 0.00273334 -0.125022 0 4.93009 -0.000278112 0 -0.0023578 0 -57.8221 0 0.001415 
47 1 0.130144 0 0.00281974 -0.130025 0 5.09386 -0.000289841 0 -0.00243472 0 -57.9626 0 0.001415 
48 1 0.132973 0 0.0029062 -0.135042 0 5.25799 -0.000301626 0 -0.00251179 0 -58.0775 0 0.001415 
49 1 0.135802 0 0.0029927 -0.14007 0 5.42241 -0.000313458 0 -0.00258897 0 -58.1691 0 0.001415 
50 1 0.13863 0 0.00307922 -0.145106 0 5.58706 -0.000325325 0 -0.00266623 0 -58.2399 0 0.001415 
51 1 0.141459 0 0.00316575 -0.150148 0 5.75189 -0.00033722 0 -0.00274357 0 -58.2923 0 0.001415 
52 1 0.144288 0 0.00325229 -0.155195 0 5.91683 -0.000349135 0 -0.00282095 0 -58.3291 0 0.001415 
53 1 0.147116 0 0.00333883 -0.160244 0 6.08187 -0.000361064 0 -0.00289836 0 -58.3528 0 0.001415 
54 1 0.149945 0 0.00342538 -0.165295 0 6.24695 -0.000373 0 -0.00297579 0 -58.3662 0 0.001415 
55 1 0.152774 0 0.00351194 -0.170347 0 6.41206 -0.00038494 0 -0.00305323 0 -58.3723 0 0.001415 
56 1 0.155602 0 0.0035985 -0.175401 0 6.57718 -0.000396882 0 -0.00313068 0 -58.3738 0 0.001415 
