ITEM: TIMESTEP
4200000
ITEM: NUMBER OF ATOMS
56
ITEM: BOX BOUNDS ff ff ff
-0.1 0.171215
-0.171215 0.171215
-0.171215 0.171215
ITEM: ATOMS id type x y z vx vy vz fx fy fz omegax omegay omegaz radius 
52 1 0.143899 0 -0.0102642 -0.0661123 0 -0.812702 0.000630123 0 0.00782636 0 6.94307 0 0.001415 
53 1 0.146714 0 -0.0105537 -0.0681216 0 -0.832244 0.000649438 0 0.0080162 0 6.94065 0 0.001415 
54 1 0.149529 0 -0.0108432 -0.070131 0 -0.851781 0.000668756 0 0.00820599 0 6.93919 0 0.001415 
55 1 0.152344 0 -0.0111329 -0.0721405 0 -0.871314 0.000688075 0 0.00839575 0 6.9385 0 0.001415 
56 1 0.15516 0 -0.0114225 -0.07415 0 -0.890847 0.000707394 0 0.00858551 0 6.93832 0 0.001415 
45 1 0.124192 0 -0.00824894 -0.0520796 0 -0.67548 0.000495302 0 0.00649398 0 6.99206 0 0.001415 
46 1 0.127007 0 -0.00853486 -0.0540773 0 -0.695152 0.000514482 0 0.00668488 0 6.98205 0 0.001415 
47 1 0.129823 0 -0.00882166 -0.0560784 0 -0.714796 0.0005337 0 0.00687555 0 6.97281 0 0.001415 
48 1 0.132638 0 -0.0091092 -0.0580822 0 -0.734415 0.000552949 0 0.00706602 0 6.96452 0 0.001415 
49 1 0.135453 0 -0.00939734 -0.0600879 0 -0.754012 0.000572221 0 0.00725631 0 6.95735 0 0.001415 
50 1 0.138269 0 -0.00968597 -0.0620951 0 -0.773589 0.00059151 0 0.00744645 0 6.95137 0 0.001415 
51 1 0.141084 0 -0.00997497 -0.0641034 0 -0.793152 0.000610812 0 0.00763645 0 6.94662 0 0.001415 
37 1 0.101662 0 -0.00601401 -0.0363657 0 -0.517072 0.000344736 0 0.00495936 0 7.05868 0 0.001415 
38 1 0.104479 0 -0.00628651 -0.038289 0 -0.536953 0.000363128 0 0.00515165 0 7.05581 0 0.001415 
39 1 0.107296 0 -0.00656137 -0.0402278 0 -0.55682 0.000381681 0 0.00534391 0 7.05035 0 0.001415 
40 1 0.110112 0 -0.0068384 -0.04218 0 -0.576667 0.000400373 0 0.00553607 0 7.04285 0 0.001415 
41 1 0.112928 0 -0.00711738 -0.0441436 0 -0.596489 0.000419185 0 0.00572807 0 7.03386 0 0.001415 
42 1 0.115744 0 -0.00739811 -0.0461169 0 -0.616283 0.000438098 0 0.00591989 0 7.02385 0 0.001415 
43 1 0.11856 0 -0.0076804 -0.0480983 0 -0.636046 0.000457099 0 0.00611149 0 7.01329 0 0.001415 
44 1 0.121376 0 -0.00796407 -0.0500862 0 -0.655779 0.000476171 0 0.00630285 0 7.00258 0 0.001415 
30 1 0.0819363 0 -0.00419243 -0.0235612 0 -0.378431 0.000222623 0 0.00362141 0 6.95202 0 0.001415 
31 1 0.0847553 0 -0.00444175 -0.025299 0 -0.398079 0.000239158 0 0.00381068 0 6.98564 0 0.001415 
32 1 0.087574 0 -0.00469513 -0.0270727 0 -0.417809 0.000256047 0 0.00400086 0 7.01194 0 0.001415 
33 1 0.0903923 0 -0.0049523 -0.0288788 0 -0.437601 0.000273258 0 0.00419175 0 7.03166 0 0.001415 
34 1 0.0932102 0 -0.00521302 -0.0307142 0 -0.457438 0.000290762 0 0.00438319 0 7.0455 0 0.001415 
35 1 0.0960279 0 -0.00547704 -0.0325757 0 -0.477304 0.000308527 0 0.00457502 0 7.05417 0 0.001415 
36 1 0.0988453 0 -0.00574412 -0.0344604 0 -0.497186 0.000326528 0 0.00476711 0 7.05834 0 0.001415 
21 1 0.0565467 0 -0.00217549 -0.0101137 0 -0.20951 9.51472e-05 0 0.00199919 0 6.20044 0 0.001415 
22 1 0.0593695 0 -0.00237607 -0.0113711 0 -0.227205 0.000107028 0 0.0021687 0 6.33232 0 0.001415 
23 1 0.0621919 0 -0.0025832 -0.0126955 0 -0.24525 0.00011955 0 0.00234167 0 6.45053 0 0.001415 
24 1 0.0650139 0 -0.00279659 -0.0140836 0 -0.263607 0.000132686 0 0.00251773 0 6.55572 0 0.001415 
25 1 0.0678354 0 -0.00301594 -0.0155323 0 -0.28224 0.000146405 0 0.00269655 0 6.64856 0 0.001415 
26 1 0.0706564 0 -0.00324098 -0.0170381 0 -0.301116 0.000160676 0 0.00287781 0 6.72973 0 0.001415 
27 1 0.073477 0 -0.00347143 -0.0185975 0 -0.320201 0.000175467 0 0.0030612 0 6.79994 0 0.001415 
28 1 0.0762972 0 -0.003707 -0.0202069 0 -0.339467 0.000190743 0 0.00324643 0 6.8599 0 0.001415 
29 1 0.079117 0 -0.00394743 -0.0218626 0 -0.358885 0.000206473 0 0.00343326 0 6.91035 0 0.001415 
1 1 1.88662e-16 0 -4.12019e-09 4.49197e-15 0 -9.81e-08 0 0 0 0 0 0 0.001415 
2 1 0.00282999 0 -6.43542e-06 -2.00179e-06 0 -0.000698354 1.86903e-08 0 6.63481e-06 0 0.487482 0 0.001415 
3 1 0.00565993 0 -2.54769e-05 -1.61894e-05 0 -0.00274887 1.51193e-07 0 2.61162e-05 0 0.955691 0 0.001415 
4 1 0.00848975 0 -5.68223e-05 -5.36426e-05 0 -0.00609698 5.01138e-07 0 5.79326e-05 0 1.40462 0 0.001415 
5 1 0.0113194 0 -0.000100165 -0.000124308 0 -0.0106879 1.16172e-06 0 0.000101572 0 1.83427 0 0.001415 
6 1 0.0141489 0 -0.0001552 -0.000237035 0 -0.016467 2.21599e-06 0 0.000156523 0 2.24468 0 0.001415 
7 1 0.0169781 0 -0.000221618 -0.000399613 0 -0.0233795 3.73724e-06 0 0.000222273 0 2.63588 0 0.001415 
8 1 0.019807 0 -0.000299114 -0.000618808 0 -0.0313709 5.78931e-06 0 0.000298313 0 3.00794 0 0.001415 
9 1 0.0226357 0 -0.00038738 -0.000900409 0 -0.0403869 8.42706e-06 0 0.000384135 0 3.36098 0 0.001415 
10 1 0.0254639 0 -0.00048611 -0.00124926 0 -0.0503735 1.16966e-05 0 0.000479232 0 3.69513 0 0.001415 
11 1 0.0282918 0 -0.000594997 -0.00166933 0 -0.0612771 1.56357e-05 0 0.000583106 0 4.01056 0 0.001415 
12 1 0.0311193 0 -0.000713735 -0.00216371 0 -0.0730448 2.02745e-05 0 0.000695258 0 4.30747 0 0.001415 
13 1 0.0339464 0 -0.000842018 -0.00273471 0 -0.0856242 2.56356e-05 0 0.000815201 0 4.58611 0 0.001415 
14 1 0.0367731 0 -0.000979541 -0.00338388 0 -0.0989638 3.17345e-05 0 0.000942449 0 4.84677 0 0.001415 
15 1 0.0395993 0 -0.001126 -0.00411209 0 -0.113013 3.85804e-05 0 0.00107653 0 5.08978 0 0.001415 
16 1 0.042425 0 -0.00128109 -0.00491954 0 -0.127722 4.61762e-05 0 0.00121698 0 5.31551 0 0.001415 
17 1 0.0452503 0 -0.00144451 -0.00580582 0 -0.143042 5.45194e-05 0 0.00136333 0 5.52436 0 0.001415 
18 1 0.0480751 0 -0.00161596 -0.00677002 0 -0.158926 6.36024e-05 0 0.00151516 0 5.71677 0 0.001415 
19 1 0.0508995 0 -0.00179514 -0.0078107 0 -0.175328 7.34129e-05 0 0.00167202 0 5.89323 0 0.001415 
20 1 0.0537233 0 -0.00198175 -0.008926 0 -0.192204 8.39345e-05 0 0.0018335 0 6.05427 0 0.001415 
