ITEM: TIMESTEP
1900000
ITEM: NUMBER OF ATOMS
56
ITEM: BOX BOUNDS ff ff ff
-0.1 0.171215
-0.171215 0.171215
-0.171215 0.171215
ITEM: ATOMS id type x y z vx vy vz fx fy fz omegax omegay omegaz radius 
56 1 0.154948 0 -0.0135037 -0.0230083 0 -0.0297214 -2.10937e-05 0 -2.83787e-05 0 7.03177 0 0.001415 
51 1 0.140914 0 -0.0116982 -0.0103603 0 0.0685284 -8.04439e-06 0 6.49012e-05 0 6.87109 0 0.001415 
52 1 0.143721 0 -0.0120587 -0.0128582 0 0.0491022 -1.06036e-05 0 4.6586e-05 0 6.95939 0 0.001415 
53 1 0.146528 0 -0.0124198 -0.0153851 0 0.0294772 -1.32085e-05 0 2.79715e-05 0 7.01286 0 0.001415 
54 1 0.149334 0 -0.0127811 -0.0179268 0 0.00975168 -1.58373e-05 0 9.20293e-06 0 7.03117 0 0.001415 
55 1 0.152141 0 -0.0131424 -0.0204675 0 -0.00998447 -1.84654e-05 0 -9.58636e-06 0 7.03163 0 0.001415 
46 1 0.126877 0 -0.00991203 0.00121303 0 0.15935 3.34335e-06 0 0.000147242 0 5.93001 0 0.001415 
47 1 0.129685 0 -0.0102662 -0.000936329 0 0.142334 1.31539e-06 0 0.000132424 0 6.18181 0 0.001415 
48 1 0.132492 0 -0.0106222 -0.00318069 0 0.124654 -8.54963e-07 0 0.000116663 0 6.40289 0 0.001415 
49 1 0.1353 0 -0.0109796 -0.00550804 0 0.106398 -3.15024e-06 0 0.000100073 0 6.59209 0 0.001415 
50 1 0.138107 0 -0.0113384 -0.00790567 0 0.0876589 -5.55358e-06 0 8.27757e-05 0 6.74843 0 0.001415 
40 1 0.110024 0 -0.00783881 0.0115502 0 0.243093 1.19274e-05 0 0.000211467 0 3.85785 0 0.001415 
41 1 0.112834 0 -0.0081769 0.0101736 0 0.231678 1.09588e-05 0 0.00020403 0 4.26123 0 0.001415 
42 1 0.115643 0 -0.00851832 0.00864916 0 0.219159 9.79983e-06 0 0.000195221 0 4.64399 0 0.001415 
43 1 0.118452 0 -0.00886279 0.00698309 0 0.205598 8.45319e-06 0 0.000185078 0 5.00408 0 0.001415 
44 1 0.121261 0 -0.00921007 0.00518263 0 0.191061 6.92335e-06 0 0.000173655 0 5.3396 0 0.001415 
45 1 0.124069 0 -0.0095599 0.00325614 0 0.17562 5.21723e-06 0 0.000161016 0 5.64878 0 0.001415 
34 1 0.0931559 0 -0.0058944 0.0165247 0 0.285773 1.39441e-05 0 0.000226867 0 1.13511 0 0.001415 
35 1 0.0959686 0 -0.00620717 0.0160915 0 0.281908 1.40241e-05 0 0.000227698 0 1.61226 0 0.001415 
36 1 0.0987807 0 -0.0065248 0.0155009 0 0.276708 1.39505e-05 0 0.000227213 0 2.08361 0 0.001415 
37 1 0.101592 0 -0.00684704 0.0147512 0 0.270195 1.37124e-05 0 0.00022537 0 2.54643 0 0.001415 
38 1 0.104403 0 -0.00717362 0.013842 0 0.262397 1.33004e-05 0 0.000222141 0 2.99809 0 0.001415 
39 1 0.107214 0 -0.0075043 0.0127742 0 0.253349 1.2707e-05 0 0.000217508 0 3.43603 0 0.001415 
28 1 0.0762675 0 -0.00413447 0.016076 0 0.280794 1.10133e-05 0 0.000197942 0 -1.68785 0 0.001415 
29 1 0.0790838 0 -0.00441261 0.0164799 0 0.284919 1.17175e-05 0 0.00020521 0 -1.23701 0 0.001415 
30 1 0.0818994 0 -0.00469716 0.016763 0 0.287756 1.23564e-05 0 0.000211619 0 -0.774271 0 0.001415 
31 1 0.0847145 0 -0.00498788 0.0169165 0 0.289275 1.29143e-05 0 0.000217074 0 -0.302689 0 0.001415 
32 1 0.0875289 0 -0.0052845 0.0169322 0 0.289458 1.33748e-05 0 0.000221487 0 0.174719 0 0.001415 
33 1 0.0903427 0 -0.00558676 0.0168035 0 0.288291 1.37232e-05 0 0.000224776 0 0.654965 0 0.001415 
19 1 0.050891 0 -0.00196294 0.00889565 0 0.194621 4.09719e-06 0 0.00011065 0 -4.7175 0 0.001415 
20 1 0.0537132 0 -0.00217162 0.00985577 0 0.207655 4.7747e-06 0 0.000121083 0 -4.5066 0 0.001415 
21 1 0.0565349 0 -0.00238905 0.0108063 0 0.220038 5.49659e-06 0 0.000131558 0 -4.25794 0 0.001415 
22 1 0.0593558 0 -0.00261498 0.0117338 0 0.231665 6.25588e-06 0 0.000141983 0 -3.97409 0 0.001415 
23 1 0.0621761 0 -0.00284914 0.012625 0 0.242441 7.04378e-06 0 0.000152264 0 -3.65773 0 0.001415 
24 1 0.0649957 0 -0.00309129 0.0134663 0 0.25228 7.85001e-06 0 0.0001623 0 -3.31163 0 0.001415 
25 1 0.0678147 0 -0.00334116 0.0142446 0 0.261102 8.66351e-06 0 0.000171989 0 -2.93865 0 0.001415 
26 1 0.070633 0 -0.00359848 0.0149471 0 0.268835 9.47101e-06 0 0.000181229 0 -2.5417 0 0.001415 
27 1 0.0734506 0 -0.00386301 0.0155615 0 0.275417 1.0259e-05 0 0.000189915 0 -2.12376 0 0.001415 
1 1 8.53471e-17 0 -1.86389e-09 4.49197e-15 0 -9.81e-08 0 0 0 0 0 0 0.001415 
2 1 0.00282998 0 -6.80045e-06 -3.66611e-07 0 0.00107377 -3.83736e-09 0 3.99961e-07 0 -0.739808 0 0.001415 
3 1 0.0056599 0 -2.69889e-05 1.86299e-05 0 0.0041581 -4.43453e-09 0 1.59658e-06 0 -1.42088 0 0.001415 
4 1 0.0084897 0 -6.03149e-05 7.36058e-05 0 0.00908654 1.98235e-09 0 3.5738e-06 0 -2.04328 0 0.001415 
5 1 0.0113193 0 -0.000106525 0.000178373 0 0.015693 1.97549e-08 0 6.31532e-06 0 -2.60717 0 0.001415 
6 1 0.0141487 0 -0.000165365 0.000344036 0 0.0238118 5.36465e-08 0 9.80419e-06 0 -3.11276 0 0.001415 
7 1 0.0169778 0 -0.000236581 0.000579094 0 0.0332779 1.08706e-07 0 1.40223e-05 0 -3.56037 0 0.001415 
8 1 0.0198066 0 -0.000319917 0.000889554 0 0.0439275 1.90356e-07 0 1.89497e-05 0 -3.95044 0 0.001415 
9 1 0.0226349 0 -0.000415116 0.00127904 0 0.0555982 3.03712e-07 0 2.45641e-05 0 -4.28353 0 0.001415 
10 1 0.0254629 0 -0.000521923 0.00174894 0 0.0681292 4.54231e-07 0 3.08401e-05 0 -4.56035 0 0.001415 
11 1 0.0282905 0 -0.00064008 0.00229851 0 0.0813621 6.46919e-07 0 3.77487e-05 0 -4.78178 0 0.001415 
12 1 0.0311175 0 -0.000769329 0.00292504 0 0.0951415 8.86211e-07 0 4.52565e-05 0 -4.94885 0 0.001415 
13 1 0.033944 0 -0.000909413 0.00362399 0 0.109315 1.17649e-06 0 5.33251e-05 0 -5.06274 0 0.001415 
14 1 0.03677 0 -0.00106007 0.00438916 0 0.123733 1.52068e-06 0 6.19109e-05 0 -5.12482 0 0.001415 
15 1 0.0395954 0 -0.00122105 0.00521285 0 0.138253 1.92148e-06 0 7.09643e-05 0 -5.13662 0 0.001415 
16 1 0.0424202 0 -0.00139209 0.00608602 0 0.152733 2.3799e-06 0 8.04299e-05 0 -5.09985 0 0.001415 
17 1 0.0452444 0 -0.00157292 0.00699847 0 0.16704 2.89656e-06 0 9.02458e-05 0 -5.01637 0 0.001415 
18 1 0.048068 0 -0.00176329 0.00793901 0 0.181043 3.46973e-06 0 0.000100344 0 -4.88819 0 0.001415 
