ITEM: TIMESTEP
13300000
ITEM: NUMBER OF ATOMS
56
ITEM: BOX BOUNDS ff ff ff
-0.1 0.171215
-0.171215 0.171215
-0.171215 0.171215
ITEM: ATOMS id type x y z vx vy vz fx fy fz omegax omegay omegaz radius 
1 1 5.97431e-16 0 -1.30473e-08 4.49197e-15 0 -9.81e-08 0 0 0 0 0 0 0.001415 
2 1 0.00283 0 3.01309e-06 2.06952e-06 0 -0.00141159 1.91267e-09 0 -2.30168e-06 0 0.989396 0 0.001415 
3 1 0.00565998 0 1.19511e-05 1.58021e-05 0 -0.00558795 1.47795e-08 0 -9.11192e-06 0 1.95398 0 0.001415 
4 1 0.00848995 0 2.66307e-05 5.19679e-05 0 -0.0124589 4.86102e-08 0 -2.03157e-05 0 2.89376 0 0.001415 
5 1 0.0113199 0 4.68814e-05 0.000120423 0 -0.0219542 1.12607e-07 0 -3.57979e-05 0 3.80872 0 0.001415 
6 1 0.0141498 0 7.25331e-05 0.000230135 0 -0.0340034 2.14979e-07 0 -5.54435e-05 0 4.69886 0 0.001415 
7 1 0.0169796 0 0.000103416 0.00038921 0 -0.0485362 3.63285e-07 0 -7.91376e-05 0 5.5642 0 0.001415 
8 1 0.0198094 0 0.000139359 0.000604918 0 -0.0654824 5.64066e-07 0 -0.000106765 0 6.40474 0 0.001415 
9 1 0.0226391 0 0.000180194 0.000883723 0 -0.0847716 8.23131e-07 0 -0.000138212 0 7.22051 0 0.001415 
10 1 0.0254687 0 0.000225752 0.0012313 0 -0.106334 1.1457e-06 0 -0.000173362 0 8.01154 0 0.001415 
11 1 0.0282983 0 0.000275863 0.00165259 0 -0.130098 1.53591e-06 0 -0.000212103 0 8.77787 0 0.001415 
12 1 0.0311277 0 0.000330361 0.0021518 0 -0.155996 1.99772e-06 0 -0.000254319 0 9.51955 0 0.001415 
13 1 0.0339571 0 0.000389078 0.00273243 0 -0.183956 2.53379e-06 0 -0.000299896 0 10.2366 0 0.001415 
14 1 0.0367864 0 0.000451848 0.00339735 0 -0.21391 3.14672e-06 0 -0.000348721 0 10.9292 0 0.001415 
15 1 0.0396156 0 0.000518506 0.00414877 0 -0.245787 3.83814e-06 0 -0.000400682 0 11.5974 0 0.001415 
16 1 0.0424448 0 0.000588888 0.00498831 0 -0.27952 4.60927e-06 0 -0.000455664 0 12.2412 0 0.001415 
17 1 0.0452738 0 0.000662832 0.00591702 0 -0.315038 5.46078e-06 0 -0.000513557 0 12.8609 0 0.001415 
18 1 0.0481027 0 0.000740178 0.00693541 0 -0.352274 6.39282e-06 0 -0.000574248 0 13.4564 0 0.001415 
19 1 0.0509316 0 0.000820766 0.00804351 0 -0.39116 7.40506e-06 0 -0.000637626 0 14.0281 0 0.001415 
20 1 0.0537604 0 0.000904439 0.00924084 0 -0.431628 8.4968e-06 0 -0.000703583 0 14.576 0 0.001415 
21 1 0.056589 0 0.000991042 0.0105265 0 -0.473612 9.66655e-06 0 -0.000772007 0 15.1004 0 0.001415 
22 1 0.0594176 0 0.00108042 0.0118992 0 -0.517044 1.09134e-05 0 -0.000842792 0 15.6014 0 0.001415 
23 1 0.0622461 0 0.00117243 0.0133573 0 -0.561859 1.22351e-05 0 -0.00091583 0 16.0794 0 0.001415 
24 1 0.0650745 0 0.00126692 0.0148987 0 -0.607992 1.36293e-05 0 -0.000991015 0 16.5344 0 0.001415 
25 1 0.0679029 0 0.00136374 0.0165212 0 -0.655379 1.50944e-05 0 -0.00106824 0 16.9669 0 0.001415 
26 1 0.0707312 0 0.00146276 0.0182221 0 -0.703956 1.66267e-05 0 -0.00114741 0 17.377 0 0.001415 
27 1 0.0735594 0 0.00156382 0.0199986 0 -0.753661 1.82241e-05 0 -0.00122841 0 17.7652 0 0.001415 
28 1 0.0763875 0 0.00166681 0.0218476 0 -0.804432 1.98834e-05 0 -0.00131114 0 18.1317 0 0.001415 
29 1 0.0792155 0 0.00177159 0.023766 0 -0.856207 2.16016e-05 0 -0.00139552 0 18.477 0 0.001415 
30 1 0.0820435 0 0.00187802 0.0257504 0 -0.908928 2.33749e-05 0 -0.00148143 0 18.8013 0 0.001415 
31 1 0.0848715 0 0.00198599 0.0277973 0 -0.962536 2.52006e-05 0 -0.00156879 0 19.1051 0 0.001415 
32 1 0.0876994 0 0.00209537 0.0299031 0 -1.01697 2.7075e-05 0 -0.00165749 0 19.3889 0 0.001415 
33 1 0.0905272 0 0.00220604 0.0320642 0 -1.07218 2.89949e-05 0 -0.00174746 0 19.653 0 0.001415 
34 1 0.093355 0 0.0023179 0.0342768 0 -1.12811 3.09568e-05 0 -0.0018386 0 19.898 0 0.001415 
35 1 0.0961827 0 0.00243084 0.0365374 0 -1.18471 3.29569e-05 0 -0.00193082 0 20.1244 0 0.001415 
36 1 0.0990104 0 0.00254475 0.0388422 0 -1.24192 3.49926e-05 0 -0.00202404 0 20.3328 0 0.001415 
37 1 0.101838 0 0.00265954 0.0411876 0 -1.29969 3.70603e-05 0 -0.00211817 0 20.5236 0 0.001415 
38 1 0.104666 0 0.00277511 0.04357 0 -1.35798 3.91568e-05 0 -0.00221314 0 20.6974 0 0.001415 
39 1 0.107493 0 0.00289137 0.0459859 0 -1.41673 4.1279e-05 0 -0.00230888 0 20.855 0 0.001415 
40 1 0.110321 0 0.00300824 0.0484319 0 -1.47591 4.34239e-05 0 -0.0024053 0 20.9969 0 0.001415 
41 1 0.113149 0 0.00312563 0.0509048 0 -1.53546 4.5589e-05 0 -0.00250233 0 21.1237 0 0.001415 
42 1 0.115976 0 0.00324349 0.0534014 0 -1.59536 4.77714e-05 0 -0.00259992 0 21.2363 0 0.001415 
43 1 0.118804 0 0.00336173 0.0559187 0 -1.65555 4.99686e-05 0 -0.00269799 0 21.3352 0 0.001415 
44 1 0.121631 0 0.0034803 0.0584539 0 -1.716 5.21783e-05 0 -0.00279649 0 21.4213 0 0.001415 
45 1 0.124459 0 0.00359914 0.0610043 0 -1.77668 5.43986e-05 0 -0.00289535 0 21.4954 0 0.001415 
46 1 0.127286 0 0.0037182 0.0635675 0 -1.83755 5.66271e-05 0 -0.00299453 0 21.5581 0 0.001415 
47 1 0.130114 0 0.00383742 0.0661413 0 -1.89859 5.88628e-05 0 -0.00309397 0 21.6105 0 0.001415 
48 1 0.132941 0 0.00395678 0.0687235 0 -1.95976 6.11027e-05 0 -0.00319363 0 21.6533 0 0.001415 
49 1 0.135769 0 0.00407624 0.0713124 0 -2.02103 6.33482e-05 0 -0.00329346 0 21.6874 0 0.001415 
50 1 0.138596 0 0.00419577 0.0739064 0 -2.08239 6.55945e-05 0 -0.00339343 0 21.7137 0 0.001415 
51 1 0.141423 0 0.00431534 0.0765042 0 -2.14382 6.78441e-05 0 -0.00349351 0 21.7332 0 0.001415 
52 1 0.144251 0 0.00443495 0.0791046 0 -2.20529 7.00947e-05 0 -0.00359366 0 21.7469 0 0.001415 
53 1 0.147078 0 0.00455457 0.0817067 0 -2.26679 7.23461e-05 0 -0.00369386 0 21.7557 0 0.001415 
54 1 0.149906 0 0.00467422 0.0843101 0 -2.32832 7.45978e-05 0 -0.0037941 0 21.7607 0 0.001415 
55 1 0.152733 0 0.00479388 0.0869142 0 -2.38985 7.6851e-05 0 -0.00389435 0 21.7629 0 0.001415 
56 1 0.155561 0 0.00491355 0.0895187 0 -2.45138 7.91039e-05 0 -0.0039946 0 21.7635 0 0.001415 
