ITEM: TIMESTEP
30000
ITEM: NUMBER OF ATOMS
10248
ITEM: BOX BOUNDS ff ff ff
-0.2 0.2
-0.2 0.2
-0.01 0.5
ITEM: ATOMS id type x y z ix iy iz vx vy vz fx fy fz omegax omegay omegaz radius 
5124 1 -0.00943529 -0.0647942 0.00288393 0 0 0 -7.02631e-18 -2.47324e-18 -0.205882 -3.17422e-19 -1.11732e-19 -0.000290868 6.12144e-17 -1.73906e-16 -4.02444e-32 0.001415 
168 1 0.0236553 -0.0380352 0.00181943 0 0 0 1.66617e-18 2.22393e-17 -0.205882 2.50659e-19 3.34568e-18 -0.000290868 -1.46866e-16 1.10032e-17 -9.82663e-32 0.001415 
9891 1 -0.0536741 -0.00562861 0.0027684 0 0 0 4.67363e-18 -5.83729e-18 -0.205882 2.09927e-19 -2.62195e-19 -0.000290868 1.74288e-16 1.39544e-16 -6.64804e-32 0.001415 
8778 1 0.0127785 0.033873 0.00329271 0 0 0 -2.82932e-18 4.76164e-18 -0.205882 -1.1703e-19 1.96957e-19 -0.000290868 -1.28455e-16 -7.63268e-17 3.66687e-32 0.001415 
167 1 0.0236183 -0.0385289 0.00460578 0 0 0 -1.40673e-18 -1.87765e-17 -0.205882 -2.37085e-19 -3.1645e-18 -0.000290868 -1.46092e-16 1.09453e-17 1.11981e-31 0.001415 
5439 1 0.0255064 -0.015295 0.00516128 0 0 0 6.69781e-19 -1.27268e-18 -0.205882 -5.90069e-25 1.12122e-24 -0.000290868 -5.23955e-18 -2.75744e-18 2.22118e-33 0.001415 
4096 1 0.0493328 0.0413049 0.00471329 0 0 0 2.85671e-18 -9.71343e-19 -0.205882 1.39431e-19 -4.74095e-20 -0.000290868 -1.22581e-17 -3.60509e-17 9.96943e-33 0.001415 
5123 1 -0.00890863 -0.0646088 0.00565831 0 0 0 6.08989e-18 2.14362e-18 -0.205882 3.17423e-19 1.11732e-19 -0.000290868 5.97648e-17 -1.69788e-16 -3.74398e-32 0.001415 
8779 1 0.0136066 -0.0379801 0.00628207 0 0 0 1.14887e-19 5.24106e-20 -0.205882 -1.01214e-25 -4.61732e-26 -0.000290868 -4.07853e-19 8.94035e-19 -5.00808e-34 0.001415 
6552 1 -0.00600865 -0.0297033 0.00689883 0 0 0 7.94195e-19 -1.2872e-19 -0.205882 -6.99677e-25 1.13401e-25 -0.000290868 -4.6852e-19 -2.89073e-18 -2.04114e-34 0.001415 
9890 1 -0.0540531 -0.00515523 0.00553267 0 0 0 -3.76157e-18 4.69814e-18 -0.205882 -2.09927e-19 2.62196e-19 -0.000290868 1.6828e-16 1.34734e-16 -6.68006e-32 0.001415 
4516 1 0.00201022 -0.00437069 0.00631876 0 0 0 -1.07236e-18 1.28018e-18 -0.205882 9.44737e-25 -1.12783e-24 -0.000290868 4.69496e-18 3.93279e-18 -1.24826e-32 0.001415 
5818 1 0.0744051 0.00953964 0.0058282 0 0 0 2.36874e-19 -2.27675e-19 -0.205882 -2.08683e-25 2.00579e-25 -0.000290868 -2.53207e-19 -2.63437e-19 -1.71799e-34 0.001415 
6447 1 -0.0515136 0.0117203 0.00614114 0 0 0 -1.1018e-18 1.34225e-18 -0.205882 9.70672e-25 -1.18251e-24 -0.000290868 4.42281e-18 3.63051e-18 -1.38205e-32 0.001415 
4347 1 0.0446345 0.0124385 0.00689792 0 0 0 -7.2832e-19 -2.5599e-19 -0.205882 6.41641e-25 2.25524e-25 -0.000290868 -2.68528e-19 7.63993e-19 -3.25116e-35 0.001415 
9996 1 -0.0293411 0.0177597 0.00685257 0 0 0 -1.75265e-18 -1.6743e-18 -0.205882 1.54407e-24 1.47504e-24 -0.000290868 -7.58391e-18 7.93879e-18 1.07776e-32 0.001415 
4221 1 0.00751144 0.0235905 0.006211 0 0 0 3.08453e-20 -2.27967e-19 -0.205882 -2.71744e-26 2.00836e-25 -0.000290868 4.1467e-19 5.61074e-20 1.0856e-34 0.001415 
3550 1 0.0375782 0.0284832 0.00696606 0 0 0 -1.07718e-18 6.30161e-18 -0.205882 9.48984e-25 -5.55165e-24 -0.000290868 3.71298e-17 6.34688e-18 -1.1661e-32 0.001415 
2814 1 0.0624335 0.0274639 0.00626893 0 0 0 1.42422e-19 7.22639e-19 -0.205882 -1.25473e-25 -6.36637e-25 -0.000290868 1.1737e-18 -2.3132e-19 1.95786e-33 0.001415 
8777 1 0.0130109 0.0334818 0.0060859 0 0 0 2.62953e-18 -4.42539e-18 -0.205882 1.1703e-19 -1.96957e-19 -0.000290868 -1.27682e-16 -7.58673e-17 3.65477e-32 0.001415 
4641 1 -0.00200478 0.0474767 0.00539048 0 0 0 -2.10653e-18 1.13427e-18 -0.205882 1.85583e-24 -9.99282e-25 -0.000290868 5.34911e-18 9.93415e-18 -2.46557e-33 0.001415 
5122 1 -0.00838197 -0.0644234 0.00843268 0 0 0 8.37094e-19 2.94655e-19 -0.205882 -5.38106e-21 -1.89412e-21 -0.000290868 5.86679e-18 -1.66672e-17 -1.12227e-31 0.001415 
8780 1 0.0123897 -0.0385353 0.00877602 0 0 0 6.16203e-18 2.81108e-18 -0.205882 3.0502e-19 1.39149e-19 -0.000290868 -2.03486e-16 4.46051e-16 -1.67615e-34 0.001415 
166 1 0.0235813 -0.0390227 0.00739213 0 0 0 -2.03211e-19 -2.71237e-18 -0.205882 -1.35742e-20 -1.81183e-19 -0.000290868 2.03707e-18 -1.52617e-19 2.10152e-31 0.001415 
1407 1 0.0135434 -0.0200891 0.00759016 0 0 0 -6.80129e-19 -1.98973e-19 -0.205882 5.99186e-25 1.75293e-25 -0.000290868 -4.80103e-19 1.64109e-18 -6.54928e-34 0.001415 
8589 1 -0.0402517 -0.0187189 0.00769713 0 0 0 5.78218e-20 -7.63615e-19 -0.205882 -5.09404e-26 6.72736e-25 -0.000290868 3.63307e-18 2.751e-19 -1.53642e-32 0.001415 
5438 1 0.0249608 -0.0142584 0.00773746 0 0 0 2.53304e-19 -4.81316e-19 -0.205882 2.43958e-20 -4.63556e-20 -0.000290868 -1.98859e-16 -1.04654e-16 -1.24583e-31 0.001415 
2100 1 -0.012979 -0.0106864 0.00780478 0 0 0 1.40875e-18 2.55603e-19 -0.205882 -1.2411e-24 -2.25184e-25 -0.000290868 1.94003e-18 -1.06924e-17 3.81114e-32 0.001415 
9889 1 -0.0544321 -0.00468185 0.00829693 0 0 0 -9.12063e-19 1.13915e-18 -0.205882 8.03517e-25 -1.00358e-24 -0.000290868 -6.00769e-18 -4.81006e-18 -3.20231e-34 0.001415 
4517 1 0.00302288 -0.0055796 0.00866864 0 0 0 1.07236e-18 -1.28018e-18 -0.205882 -9.44737e-25 1.12783e-24 -0.000290868 4.69496e-18 3.93279e-18 -1.24826e-32 0.001415 
7477 1 0.00556963 0.00632744 0.00853754 0 0 0 0 0 -0.205882 0 0 -0.000290868 0 0 0 0.001415 
6446 1 -0.0505093 0.0104969 0.0084871 0 0 0 2.30382e-19 -2.80659e-19 -0.205882 -4.294e-20 5.2311e-20 -0.000290868 -5.98891e-18 -4.91606e-18 7.32435e-32 0.001415 
5819 1 0.0733204 0.0105822 0.00822514 0 0 0 -2.36874e-19 2.27675e-19 -0.205882 2.08683e-25 -2.00579e-25 -0.000290868 -2.53207e-19 -2.63437e-19 -1.71799e-34 0.001415 
4368 1 0.0417993 0.0124877 0.00876595 0 0 0 0 0 -0.205882 0 0 -0.000290868 0 0 0 0.001415 
1281 1 -0.00910888 0.0220965 0.00726716 0 0 0 -7.20076e-19 -2.66738e-19 -0.205882 6.34379e-25 2.34993e-25 -0.000290868 -8.98065e-19 2.42439e-18 -9.39206e-34 0.001415 
4220 1 0.00732219 0.0249892 0.00866391 0 0 0 3.18622e-19 -2.35482e-18 -0.205882 1.72314e-20 -1.27351e-19 -0.000290868 -1.6182e-17 -2.18953e-18 9.57761e-33 0.001415 
2813 1 0.0621842 0.0261988 0.00878811 0 0 0 1.88718e-19 9.57539e-19 -0.205882 1.63924e-20 8.31738e-20 -0.000290868 -1.81223e-18 3.57166e-19 -2.94036e-32 0.001415 
8776 1 0.0132433 0.0330907 0.00887908 0 0 0 -1.10179e-21 1.85427e-21 -0.205882 -9.94404e-21 1.67354e-20 -0.000290868 -9.56106e-19 -5.68109e-19 1.30837e-32 0.001415 
3969 1 -0.0266131 0.0377733 0.00828439 0 0 0 -3.54079e-18 1.10772e-17 -0.205882 -1.71954e-19 5.37952e-19 -0.000290868 -4.02942e-16 -1.28798e-16 -2.16225e-32 0.001415 
7875 1 -0.0151895 0.0366812 0.00868532 0 0 0 9.44426e-19 1.11711e-18 -0.205882 4.60962e-20 5.45246e-20 -0.000290868 2.3996e-17 -2.02867e-17 -2.48128e-32 0.001415 
484 1 0.0153265 0.0412785 0.00735657 0 0 0 2.85394e-18 -2.41899e-18 -0.205882 -2.51428e-24 2.1311e-24 -0.000290868 -1.26424e-17 -1.49155e-17 1.11472e-32 0.001415 
4097 1 0.0483957 0.0416236 0.00736457 0 0 0 -1.39709e-18 4.75041e-19 -0.205882 -1.39432e-19 4.74099e-20 -0.000290868 -1.37789e-17 -4.05236e-17 8.50741e-33 0.001415 
4640 1 -0.000842548 0.0468509 0.00789377 0 0 0 2.10653e-18 -1.13427e-18 -0.205882 -1.85583e-24 9.99282e-25 -0.000290868 5.34911e-18 9.93415e-18 -2.46557e-33 0.001415 
7350 1 0.0388042 0.0484249 0.00759764 0 0 0 -4.44052e-21 -7.50932e-20 -0.205882 3.91204e-27 6.61562e-26 -0.000290868 2.59578e-19 -1.53497e-20 3.6729e-36 0.001415 
6406 1 -0.013834 -0.0547628 0.0100844 0 0 0 3.53332e-18 -1.0301e-18 -0.205882 1.72457e-19 -5.02779e-20 -0.000290868 -1.62359e-17 -5.56904e-17 -1.74424e-31 0.001415 
4747 1 -0.048396 -0.0516837 0.0108732 0 0 0 -1.04822e-17 1.53262e-18 -0.205882 -5.11793e-19 7.483e-20 -0.000290868 -4.79398e-17 -3.2788e-16 1.50558e-31 0.001415 
8904 1 0.00698378 -0.051284 0.0103926 0 0 0 0 0 -0.205882 0 0 -0.000290868 0 0 0 0.001415 
9219 1 -0.0350531 -0.0474779 0.0091563 0 0 0 0 0 -0.205882 0 0 -0.000290868 0 0 0 0.001415 
8295 1 0.0424827 -0.0477148 0.00942402 0 0 0 0 0 -0.205882 0 0 -0.000290868 0 0 0 0.001415 
165 1 0.0235443 -0.0395164 0.0101785 0 0 0 -3.17862e-20 -4.24267e-19 -0.205882 2.72379e-21 3.63559e-20 -0.000290868 1.2044e-16 -9.02339e-18 9.84413e-31 0.001415 
6551 1 -0.00658842 -0.0296093 0.00966721 0 0 0 2.76194e-19 -4.47645e-20 -0.205882 5.23297e-20 -8.48141e-21 -0.000290868 -1.80166e-18 -1.11161e-17 5.58144e-33 0.001415 
9787 1 -0.0202299 -0.023698 0.0104824 0 0 0 -1.47775e-18 -1.83754e-18 -0.205882 -7.23864e-20 -9.00103e-20 -0.000290868 -2.76231e-17 2.22146e-17 6.21149e-32 0.001415 
1406 1 0.0148736 -0.0197 0.0100576 0 0 0 6.80129e-19 1.98973e-19 -0.205882 -5.99186e-25 -1.75293e-25 -0.000290868 -4.80103e-19 1.64109e-18 -6.54928e-34 0.001415 
8588 1 -0.0403296 -0.0176897 0.0103322 0 0 0 8.23168e-19 -1.0871e-17 -0.205882 4.80493e-20 -6.34555e-19 -0.000290868 -1.68698e-16 -1.2774e-17 3.18271e-31 0.001415 
8820 1 0.00980992 -0.0172644 0.01066 0 0 0 0 0 -0.205882 0 0 -0.000290868 0 0 0 0.001415 
3529 1 0.0670132 -0.0166749 0.01096 0 0 0 0 0 -0.205882 0 0 -0.000290868 0 0 0 0.001415 
4473 1 -0.0215554 -0.0144106 0.0104367 0 0 0 0 0 -0.205882 0 0 -0.000290868 0 0 0 0.001415 
5437 1 0.0244153 -0.0132218 0.0103136 0 0 0 1.90551e-18 -3.62075e-18 -0.205882 1.14586e-19 -2.1773e-19 -0.000290868 3.71501e-17 1.95512e-17 9.64998e-32 0.001415 
2099 1 -0.0146787 -0.0109948 0.0100464 0 0 0 4.8075e-20 8.7227e-21 -0.205882 7.16085e-20 1.29926e-20 -0.000290868 3.97608e-18 -2.19141e-17 6.02358e-32 0.001415 
3528 1 0.0516347 -0.000942708 0.00974862 0 0 0 -3.95277e-18 -1.79772e-18 -0.205882 -1.92809e-19 -8.76893e-20 -0.000290868 -3.24965e-17 7.14523e-17 2.18283e-31 0.001415 
2457 1 0.0227749 0.00368251 0.0100716 0 0 0 0 0 -0.205882 0 0 -0.000290868 0 0 0 0.001415 
6445 1 -0.0495051 0.00927345 0.0108331 0 0 0 2.82843e-21 -3.44569e-21 -0.205882 -4.31832e-22 5.26073e-22 -0.000290868 -1.49521e-17 -1.22736e-17 4.08791e-32 0.001415 
4431 1 -0.0620527 0.012605 0.0108276 0 0 0 -5.71346e-18 1.22052e-18 -0.205882 -3.51908e-19 7.51755e-20 -0.000290868 -3.43255e-17 -1.60683e-16 1.68037e-30 0.001415 
4346 1 0.0459771 0.0129104 0.00934409 0 0 0 -1.73787e-18 -6.10827e-19 -0.205882 -1.20453e-19 -4.2337e-20 -0.000290868 -1.28077e-17 3.64393e-17 -9.07287e-33 0.001415 
5820 1 0.0722357 0.0116248 0.0106221 0 0 0 1.98618e-18 -1.90905e-18 -0.205882 9.69429e-20 -9.31783e-20 -0.000290868 -3.62049e-17 -3.76676e-17 2.13662e-33 0.001415 
9995 1 -0.0283179 0.0187371 0.00930342 0 0 0 1.75265e-18 1.6743e-18 -0.205882 -1.54407e-24 -1.47504e-24 -0.000290868 -7.58391e-18 7.93879e-18 1.07776e-32 0.001415 
1280 1 -0.00826091 0.0224106 0.00994879 0 0 0 7.20076e-19 2.66738e-19 -0.205882 -6.34379e-25 -2.34993e-25 -0.000290868 -8.98065e-19 2.42439e-18 -9.39206e-34 0.001415 
3551 1 0.0378271 0.027027 0.00937982 0 0 0 1.07718e-18 -6.30161e-18 -0.205882 -9.48984e-25 5.55165e-24 -0.000290868 3.71298e-17 6.34688e-18 -1.1661e-32 0.001415 
3968 1 -0.0261983 0.0364757 0.0107649 0 0 0 3.54079e-18 -1.10772e-17 -0.205882 1.71954e-19 -5.37952e-19 -0.000290868 -4.02942e-16 -1.28798e-16 -2.16225e-32 0.001415 
9745 1 -0.0323504 0.0411674 0.0100712 0 0 0 0 0 -0.205882 0 0 -0.000290868 0 0 0 0.001415 
485 1 0.0142511 0.04219 0.00981047 0 0 0 -2.85394e-18 2.41899e-18 -0.205882 2.51428e-24 -2.1311e-24 -0.000290868 -1.26424e-17 -1.49155e-17 1.11472e-32 0.001415 
4098 1 0.0474587 0.0419422 0.0100159 0 0 0 -6.46796e-19 2.19925e-19 -0.205882 3.9868e-20 -1.3556e-20 -0.000290868 1.39962e-18 4.11628e-18 -4.91924e-32 0.001415 
4639 1 0.000319678 0.0462251 0.0103971 0 0 0 -3.52435e-18 1.89771e-18 -0.205882 -1.72129e-19 9.26841e-20 -0.000290868 3.84268e-17 7.13647e-17 -1.49011e-31 0.001415 
7349 1 0.0388392 0.0490157 0.0103651 0 0 0 -1.082e-19 -1.82976e-18 -0.205882 -7.92033e-21 -1.3394e-19 -0.000290868 -2.19339e-16 1.29703e-17 -6.72307e-32 0.001415 
3318 1 0.0108764 -0.0748018 0.0124542 0 0 0 0 0 -0.205882 0 0 -0.000290868 0 0 0 0.001415 
5121 1 -0.0078553 -0.064238 0.0112071 0 0 0 -1.27223e-18 -4.47822e-19 -0.205882 -9.59792e-20 -3.37844e-20 -0.000290868 -9.79498e-17 2.78269e-16 2.60047e-30 0.001415 
6407 1 -0.0157638 -0.0542001 0.0120765 0 0 0 -3.53332e-18 1.0301e-18 -0.205882 -1.72457e-19 5.02779e-20 -0.000290868 -1.62359e-17 -5.56904e-17 -1.74424e-31 0.001415 
4748 1 -0.0463698 -0.05198 0.0128266 0 0 0 7.05706e-18 -1.03182e-18 -0.205882 2.7903e-19 -4.07974e-20 -0.000290868 -8.83516e-17 -6.04272e-16 7.9956e-31 0.001415 
8903 1 0.00719176 -0.0530399 0.0126022 0 0 0 -2.81988e-19 2.38067e-18 -0.205882 -2.28096e-20 1.92569e-19 -0.000290868 -1.53238e-16 -1.81509e-17 1.72372e-30 0.001415 
8421 1 -0.0125515 -0.050364 0.0122797 0 0 0 0 0 -0.205882 0 0 -0.000290868 0 0 0 0.001415 
5040 1 0.0412118 -0.051077 0.0118568 0 0 0 0 0 -0.205882 0 0 -0.000290868 0 0 0 0.001415 
9218 1 -0.0344149 -0.0491301 0.0113635 0 0 0 -8.46941e-19 2.19228e-18 -0.205882 -6.75977e-20 1.74975e-19 -0.000290868 -7.74357e-17 -2.99156e-17 3.56334e-30 0.001415 
8294 1 0.0417911 -0.0460756 0.0116248 0 0 0 0 0 -0.205882 0 0 -0.000290868 0 0 0 0.001415 
8781 1 0.0111727 -0.0390904 0.01127 0 0 0 -6.27692e-18 -2.86349e-18 -0.205882 -3.0502e-19 -1.39149e-19 -0.000290868 -2.03078e-16 4.45157e-16 3.33193e-34 0.001415 
7141 1 -0.0440609 -0.0300013 0.0128173 0 0 0 0 0 -0.205882 0 0 -0.000290868 0 0 0 0.001415 
6550 1 -0.00716818 -0.0295154 0.0124356 0 0 0 -1.07039e-18 1.73485e-19 -0.205882 -5.2329e-20 8.4813e-21 -0.000290868 -1.33314e-18 -8.22535e-18 5.78555e-33 0.001415 
9788 1 -0.0191042 -0.0222982 0.0126692 0 0 0 8.0674e-19 1.00316e-18 -0.205882 -1.74354e-21 -2.16803e-21 -0.000290868 1.62312e-16 -1.30532e-16 2.36843e-30 0.001415 
1405 1 0.0162037 -0.0193109 0.012525 0 0 0 -4.95413e-18 -1.44934e-18 -0.205882 -3.21299e-19 -9.39965e-20 -0.000290868 2.62837e-17 -8.98427e-17 3.39467e-31 0.001415 
8819 1 0.00974619 -0.0192248 0.0127001 0 0 0 2.27171e-19 6.98706e-18 -0.205882 1.40085e-20 4.30859e-19 -0.000290868 2.04092e-16 -6.63565e-18 -1.93761e-30 0.001415 
4472 1 -0.0211077 -0.0159411 0.0127746 0 0 0 -2.95178e-18 1.009e-17 -0.205882 -1.68661e-19 5.76532e-19 -0.000290868 -5.52258e-16 -1.6156e-16 1.02452e-30 0.001415 
4389 1 -0.00210167 -0.0164576 0.0114667 0 0 0 3.66732e-19 -1.78778e-19 -0.205882 4.12633e-20 -2.01154e-20 -0.000290868 -9.36862e-17 -1.92181e-16 -3.84894e-31 0.001415 
2098 1 -0.0163785 -0.0113032 0.0122879 0 0 0 -1.45683e-18 -2.64326e-19 -0.205882 -7.16072e-20 -1.29924e-20 -0.000290868 2.03605e-18 -1.12217e-17 2.21244e-32 0.001415 
4518 1 0.00403554 -0.00678852 0.0110185 0 0 0 -3.59555e-18 4.29237e-18 -0.205882 -2.21626e-19 2.64577e-19 -0.000290868 3.87317e-17 3.24441e-17 -5.7278e-30 0.001415 
9888 1 -0.0548111 -0.00420847 0.0110612 0 0 0 5.77781e-19 -7.21639e-19 -0.205882 4.97182e-20 -6.20972e-20 -0.000290868 -2.08166e-16 -1.66668e-16 -1.12385e-30 0.001415 
3527 1 0.053278 -0.000195356 0.0119281 0 0 0 3.95277e-18 1.79772e-18 -0.205882 1.92809e-19 8.76893e-20 -0.000290868 -3.24965e-17 7.14523e-17 2.18283e-31 0.001415 
4852 1 -0.0576017 0.00160357 0.0126891 0 0 0 1.33303e-18 2.18721e-18 -0.205882 1.0465e-19 1.71708e-19 -0.000290868 5.79103e-17 -3.52942e-17 6.51898e-30 0.001415 
2456 1 0.0231999 0.00341526 0.0128567 0 0 0 -7.8877e-17 4.96036e-17 -0.205882 -8.23969e-18 5.18172e-18 -0.000290868 -2.21504e-16 -3.52223e-16 -2.45811e-30 0.001415 
1470 1 -0.0541433 0.00552442 0.0113087 0 0 0 3.92478e-18 3.78213e-18 -0.205882 2.59928e-19 2.5048e-19 -0.000290868 -1.08668e-16 1.12767e-16 4.46924e-31 0.001415 
7478 1 0.0063252 0.00556124 0.011155 0 0 0 0 0 -0.205882 0 0 -0.000290868 0 0 0 0.001415 
5545 1 -0.0302182 0.00727945 0.0114491 0 0 0 0 0 -0.205882 0 0 -0.000290868 0 0 0 0.001415 
4367 1 0.0426483 0.0117219 0.0113547 0 0 0 -1.26465e-18 1.1408e-18 -0.205882 -1.07806e-19 9.72486e-20 -0.000290868 1.4437e-16 1.60043e-16 1.2696e-30 0.001415 
4345 1 0.0473197 0.0133822 0.0117903 0 0 0 2.46619e-18 8.66817e-19 -0.205882 1.20453e-19 4.23368e-20 -0.000290868 -1.25392e-17 3.56753e-17 -9.04036e-33 0.001415 
9994 1 -0.0272948 0.0197145 0.0117543 0 0 0 -3.73456e-18 -3.56761e-18 -0.205882 -2.37728e-19 -2.27101e-19 -0.000290868 1.46483e-16 -1.53337e-16 3.88016e-30 0.001415 
1279 1 -0.00741294 0.0227247 0.0126304 0 0 0 -4.49471e-18 -1.66497e-18 -0.205882 -2.82454e-19 -1.04629e-19 -0.000290868 -1.04029e-16 2.80833e-16 -5.00107e-32 0.001415 
2812 1 0.0619348 0.0249338 0.0113073 0 0 0 1.65449e-19 8.39473e-19 -0.205882 2.21722e-20 1.125e-19 -0.000290868 3.10003e-16 -6.10974e-17 -2.93396e-30 0.001415 
4219 1 0.00713294 0.0263879 0.0111168 0 0 0 1.14728e-19 -8.47911e-19 -0.205882 1.55012e-20 -1.14564e-19 -0.000290868 -8.88253e-17 -1.20186e-17 3.77669e-31 0.001415 
3552 1 0.038076 0.0255707 0.0117936 0 0 0 -1.30383e-19 7.62754e-19 -0.205882 -1.42207e-20 8.31924e-20 -0.000290868 -1.27076e-16 -2.1722e-17 2.507e-30 0.001415 
9955 1 0.0480973 0.0295036 0.012089 0 0 0 0 0 -0.205882 0 0 -0.000290868 0 0 0 0.001415 
6216 1 -0.023401 0.0310553 0.0111863 0 0 0 -5.92418e-19 -2.75448e-18 -0.205882 -2.90609e-20 -1.3512e-19 -0.000290868 -3.14418e-17 6.76231e-18 -1.09828e-31 0.001415 
8775 1 0.0134757 0.0326995 0.0116723 0 0 0 4.13257e-20 -6.95496e-20 -0.205882 -8.13057e-21 1.36834e-20 -0.000290868 1.31342e-16 7.80419e-17 -3.22441e-31 0.001415 
7874 1 -0.0157052 0.0360712 0.0114002 0 0 0 -9.44426e-19 -1.11711e-18 -0.205882 -4.60962e-20 -5.45246e-20 -0.000290868 2.3996e-17 -2.02867e-17 -2.48128e-32 0.001415 
4099 1 0.0465216 0.0422608 0.0126671 0 0 0 -8.12821e-19 2.76377e-19 -0.205882 -3.98668e-20 1.35556e-20 -0.000290868 2.92042e-18 8.58893e-18 -4.77304e-32 0.001415 
9746 1 -0.0326219 0.0429159 0.0122799 0 0 0 5.0474e-19 -3.25071e-18 -0.205882 3.74692e-20 -2.41315e-19 -0.000290868 1.67623e-16 2.6027e-17 -7.43192e-31 0.001415 
486 1 0.0131757 0.0431015 0.0122644 0 0 0 6.27491e-18 -5.31861e-18 -0.205882 3.68896e-19 -3.12676e-19 -0.000290868 4.41785e-16 5.21219e-16 2.93319e-30 0.001415 
8316 1 0.0241447 0.055508 0.012832 0 0 0 0 0 -0.205882 0 0 -0.000290868 0 0 0 0.001415 
6048 1 -0.0014895 0.0671831 0.0116795 0 0 0 -2.86636e-18 -1.72246e-19 -0.205882 -2.20391e-19 -1.32438e-20 -0.000290868 2.45232e-18 -4.08093e-17 -3.15426e-31 0.001415 
3317 1 0.00879117 -0.0741345 0.0142473 0 0 0 2.10921e-16 -6.74977e-17 -0.205882 2.15995e-17 -6.91213e-18 -0.000290868 6.5446e-18 2.0451e-17 1.27435e-29 0.001415 
4537 1 0.0348065 -0.0668743 0.0142253 0 0 0 6.92072e-17 -1.34776e-16 -0.205882 7.25523e-18 -1.41291e-17 -0.000290868 1.2354e-15 6.34373e-16 -2.42355e-30 0.001415 
5120 1 -0.00732864 -0.0640527 0.0139814 0 0 0 -8.51282e-17 -2.99649e-17 -0.205882 -9.20945e-18 -3.2417e-18 -0.000290868 2.15234e-16 -6.11464e-16 3.38039e-30 0.001415 
4749 1 -0.0443437 -0.0522762 0.01478 0 0 0 -1.57308e-16 2.30003e-17 -0.205882 -1.82324e-17 2.66579e-18 -0.000290868 1.12852e-16 7.7184e-16 3.42716e-30 0.001415 
6408 1 -0.0176936 -0.0536375 0.0140685 0 0 0 2.26725e-16 -6.60992e-17 -0.205882 2.30692e-17 -6.72557e-18 -0.000290868 -9.72069e-17 -3.33427e-16 1.48904e-29 0.001415 
9217 1 -0.0337766 -0.0507822 0.0135708 0 0 0 -7.2316e-17 1.87188e-16 -0.205882 -7.8414e-18 2.02972e-17 -0.000290868 4.23822e-16 1.63735e-16 3.88964e-30 0.001415 
5039 1 0.0393096 -0.0515993 0.013886 0 0 0 2.0651e-16 5.67034e-17 -0.205882 2.20118e-17 6.044e-18 -0.000290868 1.72636e-16 -6.28728e-16 -4.64441e-30 0.001415 
8420 1 -0.0130316 -0.0490822 0.0147566 0 0 0 6.86706e-17 -1.83364e-16 -0.205882 7.31641e-18 -1.95363e-17 -0.000290868 2.30918e-17 8.64798e-18 -5.02955e-30 0.001415 
8293 1 0.0410995 -0.0444363 0.0138256 0 0 0 9.01137e-17 -2.13586e-16 -0.205882 9.43274e-18 -2.23574e-17 -0.000290868 -1.30318e-15 -5.49822e-16 9.92378e-30 0.001415 
8782 1 0.00995582 -0.0396456 0.0137639 0 0 0 1.55097e-16 7.07542e-17 -0.205882 1.71447e-17 7.82133e-18 -0.000290868 2.91331e-16 -6.38612e-16 4.7937e-30 0.001415 
164 1 0.0235073 -0.0400101 0.0129648 0 0 0 5.70706e-18 7.61752e-17 -0.205882 6.28763e-19 8.39244e-18 -0.000290868 -6.35841e-16 4.76373e-17 1.34725e-30 0.001415 
1765 1 -0.00582286 -0.0341936 0.0145187 0 0 0 1.76156e-16 -5.51258e-17 -0.205882 1.90321e-17 -5.95585e-18 -0.000290868 -2.58568e-16 -8.26258e-16 -6.04773e-30 0.001415 
2898 1 -0.0015393 -0.0260351 0.0147909 0 0 0 1.28727e-16 -2.5412e-17 -0.205882 1.34275e-17 -2.65071e-18 -0.000290868 1.75868e-16 8.90879e-16 2.94509e-31 0.001415 
1113 1 0.057839 -0.0250229 0.0136475 0 0 0 1.93134e-16 9.90866e-17 -0.205882 2.03261e-17 1.04282e-17 -0.000290868 3.14024e-16 -6.12079e-16 -2.23223e-29 0.001415 
2604 1 -0.0264828 -0.0239558 0.0145155 0 0 0 1.80818e-16 -7.8727e-18 -0.205882 1.91162e-17 -8.32309e-19 -0.000290868 -3.07334e-17 -7.05875e-16 2.37081e-30 0.001415 
8818 1 0.00968245 -0.0211851 0.0147401 0 0 0 6.40695e-18 1.97058e-16 -0.205882 7.06759e-19 2.17377e-17 -0.000290868 6.61325e-16 -2.15017e-17 -2.63234e-30 0.001415 
3530 1 0.0663652 -0.0174708 0.0135973 0 0 0 1.22041e-16 1.49891e-16 -0.205882 1.23467e-17 1.51642e-17 -0.000290868 -8.34602e-16 6.79534e-16 1.06786e-29 0.001415 
8587 1 -0.0404076 -0.0166605 0.0129673 0 0 0 9.38893e-18 -1.23994e-16 -0.205882 6.42751e-19 -8.48839e-18 -0.000290868 9.95912e-16 7.54116e-17 9.51352e-31 0.001415 
4388 1 -0.00265555 -0.0161876 0.0142288 0 0 0 8.68417e-17 -4.23343e-17 -0.205882 9.41164e-18 -4.58807e-18 -0.000290868 2.53117e-16 5.19226e-16 -1.09881e-30 0.001415 
2097 1 -0.0180782 -0.0116116 0.0145295 0 0 0 2.10313e-16 3.8159e-17 -0.205882 2.24674e-17 4.07646e-18 -0.000290868 2.11302e-16 -1.16459e-15 -7.34896e-30 0.001415 
5436 1 0.0238697 -0.0121851 0.0128898 0 0 0 -1.42692e-18 2.71136e-18 -0.205882 -3.6971e-20 7.02504e-20 -0.000290868 4.95984e-18 2.61023e-18 -2.54637e-30 0.001415 
4519 1 0.0050482 -0.00799743 0.0133684 0 0 0 -1.00762e-16 1.2029e-16 -0.205882 -1.17924e-17 1.40778e-17 -0.000290868 1.65669e-16 1.38775e-16 -9.34517e-30 0.001415 
9887 1 -0.0551901 -0.00373509 0.0138255 0 0 0 6.10001e-17 -7.61881e-17 -0.205882 6.59203e-18 -8.23333e-18 -0.000290868 5.65739e-16 4.52959e-16 -2.62792e-30 0.001415 
4853 1 -0.0586257 -7.65915e-05 0.0147231 0 0 0 1.09372e-16 1.79456e-16 -0.205882 1.15967e-17 1.90277e-17 -0.000290868 -2.07993e-17 1.26764e-17 -4.3815e-30 0.001415 
9744 1 -0.0476714 0.00124731 0.0136097 0 0 0 5.37752e-19 6.12545e-19 -0.205882 5.15855e-20 5.87601e-20 -0.000290868 4.8353e-17 -4.24491e-17 -2.71828e-31 0.001415 
3403 1 0.0399954 0.00144601 0.0137446 0 0 0 -1.79834e-16 8.51011e-18 -0.205882 -2.02551e-17 9.58515e-19 -0.000290868 1.21988e-17 2.57783e-16 2.26018e-30 0.001415 
3526 1 0.0549212 0.000551996 0.0141076 0 0 0 -2.12254e-16 -9.65329e-17 -0.205882 -2.19328e-17 -9.97502e-18 -0.000290868 -5.68857e-16 1.25079e-15 -3.90695e-29 0.001415 
3843 1 -0.0432547 0.00201405 0.0143301 0 0 0 1.69786e-16 1.15686e-16 -0.205882 1.83511e-17 1.25038e-17 -0.000290868 3.45399e-16 -5.06924e-16 -2.25534e-30 0.001415 
6238 1 0.0476834 0.00358837 0.0138656 0 0 0 2.16346e-16 -1.39201e-16 -0.205882 2.17753e-17 -1.40106e-17 -0.000290868 -1.01721e-16 -1.58095e-16 8.6242e-30 0.001415 
1469 1 -0.0554428 0.00427207 0.0134886 0 0 0 1.57276e-16 1.5156e-16 -0.205882 1.67348e-17 1.61266e-17 -0.000290868 5.96258e-16 -6.18747e-16 6.25779e-30 0.001415 
7479 1 0.00708078 0.00479504 0.0137724 0 0 0 -1.13823e-16 1.15423e-16 -0.205882 -1.21958e-17 1.23673e-17 -0.000290868 -5.31829e-16 -5.24454e-16 -1.28181e-29 0.001415 
6444 1 -0.0485008 0.00805 0.013179 0 0 0 -1.26358e-18 1.53933e-18 -0.205882 -1.28927e-19 1.57063e-19 -0.000290868 -2.36267e-16 -1.93942e-16 -1.01298e-30 0.001415 
5546 1 -0.0286421 0.00814112 0.013636 0 0 0 -2.15457e-16 -1.17793e-16 -0.205882 -2.19237e-17 -1.1986e-17 -0.000290868 -8.65394e-16 1.5829e-15 -2.97201e-29 0.001415 
7897 1 0.0202104 0.0106666 0.0130318 0 0 0 9.92811e-19 4.73234e-18 -0.205882 6.58197e-20 3.13737e-19 -0.000290868 2.90409e-16 -6.09257e-17 -1.40789e-32 0.001415 
4366 1 0.0434972 0.010956 0.0139435 0 0 0 -1.29336e-16 1.16671e-16 -0.205882 -1.37207e-17 1.23771e-17 -0.000290868 -3.64758e-16 -4.04356e-16 -4.47473e-30 0.001415 
4430 1 -0.0607358 0.0123237 0.0133167 0 0 0 -1.55796e-16 3.32814e-17 -0.205882 -1.76515e-17 3.77075e-18 -0.000290868 2.91315e-17 1.36369e-16 1.77577e-30 0.001415 
5821 1 0.071151 0.0126674 0.013019 0 0 0 -1.98618e-18 1.90905e-18 -0.205882 -9.69429e-20 9.31783e-20 -0.000290868 -3.62049e-17 -3.76676e-17 2.13662e-33 0.001415 
4344 1 0.0486622 0.0138541 0.0142364 0 0 0 -1.92345e-16 -6.76053e-17 -0.205882 -2.04614e-17 -7.19177e-18 -0.000290868 -4.26209e-17 1.21261e-16 2.91814e-30 0.001415 
5629 1 -0.00809486 0.0186934 0.0141098 0 0 0 1.87919e-16 3.28738e-18 -0.205882 2.01207e-17 3.51984e-19 -0.000290868 2.1782e-17 -1.24514e-15 -6.67629e-31 0.001415 
9993 1 -0.0262716 0.020692 0.0142051 0 0 0 -1.21165e-16 -1.15749e-16 -0.205882 -1.37443e-17 -1.31299e-17 -0.000290868 -6.82568e-16 7.14509e-16 4.10188e-30 0.001415 
3553 1 0.038325 0.0241144 0.0142073 0 0 0 -2.84771e-17 1.66594e-16 -0.205882 -3.21102e-18 1.87848e-17 -0.000290868 7.90963e-16 1.35205e-16 2.10354e-30 0.001415 
2811 1 0.0616855 0.0236687 0.0138265 0 0 0 3.71552e-17 1.88522e-16 -0.205882 3.94796e-18 2.00316e-17 -0.000290868 -8.21096e-16 1.61827e-16 -6.16224e-30 0.001415 
4218 1 0.00694369 0.0277865 0.0135697 0 0 0 2.41324e-17 -1.78354e-16 -0.205882 2.66264e-18 -1.96787e-17 -0.000290868 -5.98105e-16 -8.09273e-17 -4.87756e-31 0.001415 
9956 1 0.047731 0.0274693 0.0140219 0 0 0 3.71274e-17 2.06197e-16 -0.205882 3.89229e-18 2.16169e-17 -0.000290868 2.9159e-16 -5.2503e-17 -3.63543e-30 0.001415 
6007 1 0.0347873 0.0296881 0.0137918 0 0 0 5.69821e-17 6.3847e-17 -0.205882 6.29174e-18 7.04974e-18 -0.000290868 -5.04038e-16 4.49843e-16 1.96755e-30 0.001415 
8774 1 0.0137081 0.0323084 0.0144655 0 0 0 -3.79933e-17 6.39412e-17 -0.205882 -4.09034e-18 6.88388e-18 -0.000290868 -5.16449e-16 -3.06869e-16 5.49927e-31 0.001415 
6215 1 -0.0229502 0.0331509 0.013034 0 0 0 2.24866e-19 1.04553e-18 -0.205882 -2.5455e-21 -1.18355e-20 -0.000290868 1.31401e-16 -2.8261e-17 -5.23314e-31 0.001415 
3967 1 -0.0257836 0.0351781 0.0132455 0 0 0 -6.32511e-17 1.97879e-16 -0.205882 -6.62743e-18 2.07337e-17 -0.000290868 -1.95084e-16 -6.23578e-17 1.36315e-29 0.001415 
7873 1 -0.0162209 0.0354611 0.0141152 0 0 0 8.2742e-17 9.78708e-17 -0.205882 8.87848e-18 1.05018e-17 -0.000290868 -1.11898e-15 9.46013e-16 1.69895e-30 0.001415 
6847 1 -0.0500743 0.0395872 0.0142718 0 0 0 -2.04091e-16 8.80288e-17 -0.205882 -2.02966e-17 8.75435e-18 -0.000290868 5.00018e-16 1.15927e-15 -8.73661e-30 0.001415 
487 1 0.0121003 0.044013 0.0147183 0 0 0 1.24372e-16 -1.05418e-16 -0.205882 1.41756e-17 -1.20152e-17 -0.000290868 -2.75256e-16 -3.24748e-16 9.42101e-30 0.001415 
9747 1 -0.0328934 0.0446643 0.0144885 0 0 0 3.28161e-17 -2.11347e-16 -0.205882 3.4742e-18 -2.23751e-17 -0.000290868 -8.46732e-16 -1.31473e-16 -2.19809e-31 0.001415 
4638 1 0.00148191 0.0455993 0.0129004 0 0 0 2.8608e-18 -1.54042e-18 -0.205882 9.92119e-20 -5.34213e-20 -0.000290868 4.74911e-17 8.81987e-17 -8.73794e-31 0.001415 
7348 1 0.0388741 0.0496065 0.0131325 0 0 0 -5.71577e-18 -9.66589e-17 -0.205882 -6.15012e-19 -1.04004e-17 -0.000290868 7.58772e-16 -4.48688e-17 -1.53245e-31 0.001415 
8315 1 0.0261215 0.0546907 0.0146848 0 0 0 -2.05134e-16 8.48082e-17 -0.205882 -2.09919e-17 8.67865e-18 -0.000290868 9.539e-17 2.30729e-16 3.31626e-29 0.001415 
4831 1 0.0293284 0.0560787 0.0133013 0 0 0 1.79047e-16 -9.95308e-17 -0.205882 1.89496e-17 -1.05339e-17 -0.000290868 -4.42927e-16 -7.96787e-16 -3.99993e-30 0.001415 
6909 1 0.00964204 0.0590336 0.0133354 0 0 0 1.96953e-17 -1.18669e-17 -0.205882 1.05363e-18 -6.34841e-19 -0.000290868 4.49025e-16 7.45236e-16 2.50826e-30 0.001415 
6047 1 -2.16486e-05 0.0672713 0.0140975 0 0 0 -2.08603e-16 -1.25354e-17 -0.205882 -2.19286e-17 -1.31774e-18 -0.000290868 -9.3521e-19 1.55629e-17 1.7938e-31 0.001415 
7455 1 0.00864732 0.0657086 0.0142438 0 0 0 -8.63853e-18 2.04854e-16 -0.205882 -9.30689e-19 2.20703e-17 -0.000290868 3.53637e-16 1.49126e-17 -9.8899e-31 0.001415 
8757 1 0.00829498 0.0765507 0.0136903 0 0 0 0 0 -0.205882 0 0 -0.000290868 0 0 0 0.001415 
3316 1 0.00670592 -0.0734672 0.0160404 0 0 0 -2.10921e-16 6.74977e-17 -0.205882 -2.15995e-17 6.91213e-18 -0.000290868 6.5446e-18 2.0451e-17 1.27435e-29 0.001415 
2499 1 0.0564696 -0.0568217 0.0161874 0 0 0 1.91807e-18 -4.38839e-18 -0.205882 9.42082e-20 -2.15541e-19 -0.000290868 -3.63577e-17 -1.58912e-17 -9.06838e-32 0.001415 
8902 1 0.00739974 -0.0547957 0.0148119 0 0 0 -2.49467e-17 2.10611e-16 -0.205882 -2.66987e-18 2.25403e-17 -0.000290868 6.41191e-16 7.59483e-17 2.88533e-30 0.001415 
4054 1 -0.0359786 -0.0521436 0.0164739 0 0 0 0 0 -0.205882 0 0 -0.000290868 0 0 0 0.001415 
9216 1 -0.0331383 -0.0524344 0.015778 0 0 0 7.12482e-17 -1.84424e-16 -0.205882 7.78275e-18 -2.01454e-17 -0.000290868 3.24215e-16 1.25254e-16 -5.11065e-31 0.001415 
6409 1 -0.0196234 -0.0530749 0.0160606 0 0 0 -2.26725e-16 6.60992e-17 -0.205882 -2.30692e-17 6.72557e-18 -0.000290868 -9.72069e-17 -3.33427e-16 1.48904e-29 0.001415 
5038 1 0.0374074 -0.0521216 0.0159152 0 0 0 -1.92395e-16 -5.28278e-17 -0.205882 -2.12185e-17 -5.82618e-18 -0.000290868 2.88401e-17 -1.05034e-16 2.1091e-30 0.001415 
8292 1 0.0404079 -0.0427971 0.0160264 0 0 0 -8.84113e-17 2.09551e-16 -0.205882 -9.31185e-18 2.20708e-17 -0.000290868 -9.81249e-16 -4.13997e-16 8.15522e-30 0.001415 
163 1 0.0234703 -0.0405039 0.0157512 0 0 0 -5.70725e-18 -7.61778e-17 -0.205882 -6.2871e-19 -8.39174e-18 -0.000290868 -6.58075e-16 4.93031e-17 1.38392e-30 0.001415 
8783 1 0.00873888 -0.0402008 0.0162579 0 0 0 -1.53417e-16 -6.99878e-17 -0.205882 -1.70053e-17 -7.75773e-18 -0.000290868 1.56221e-16 -3.42444e-16 5.03149e-30 0.001415 
1766 1 -0.00794199 -0.0335305 0.0162733 0 0 0 -1.64225e-16 5.13924e-17 -0.205882 -1.83638e-17 5.74673e-18 -0.000290868 -1.76638e-16 -5.64452e-16 7.34803e-31 0.001415 
7142 1 -0.0430179 -0.0310366 0.0152359 0 0 0 -1.37273e-16 1.36257e-16 -0.205882 -1.48362e-17 1.47263e-17 -0.000290868 5.63221e-16 5.67421e-16 3.19268e-31 0.001415 
6549 1 -0.00774795 -0.0294214 0.015204 0 0 0 9.92387e-17 -1.60843e-17 -0.205882 1.05153e-17 -1.70428e-18 -0.000290868 1.38702e-16 8.55779e-16 -2.41268e-31 0.001415 
1112 1 0.0563793 -0.0257718 0.0159535 0 0 0 -1.93134e-16 -9.90866e-17 -0.205882 -2.03261e-17 -1.04282e-17 -0.000290868 3.14024e-16 -6.12079e-16 -2.23223e-29 0.001415 