ITEM: TIMESTEP
75000
ITEM: NUMBER OF ATOMS
10248
ITEM: BOX BOUNDS ff ff ff
-0.2 0.2
-0.2 0.2
-0.01 0.5
ITEM: ATOMS id type x y z ix iy iz vx vy vz fx fy fz omegax omegay omegaz radius 
5124 1 -0.00943529 -0.0647942 0.00269467 0 0 0 -1.04562e-17 -3.68055e-18 -0.214706 9.39025e-24 3.30534e-24 -0.000290857 2.41025e-16 -6.84735e-16 1.33822e-32 0.001415 
168 1 0.0236553 -0.0380352 0.00163016 0 0 0 6.96425e-18 9.29556e-17 -0.214706 1.50168e-19 2.00437e-18 -0.000290857 2.83318e-16 -2.12262e-17 -5.8483e-31 0.001415 
9891 1 -0.0536741 -0.00562861 0.00257914 0 0 0 6.91717e-18 -8.63943e-18 -0.214706 -6.212e-24 7.75868e-24 -0.000290857 6.56021e-16 5.25244e-16 -2.86259e-31 0.001415 
8778 1 0.0127785 0.033873 0.00310345 0 0 0 -4.16814e-18 7.01482e-18 -0.214706 3.74322e-24 -6.29969e-24 -0.000290857 -4.39574e-16 -2.6119e-16 3.60363e-31 0.001415 
167 1 0.0236183 -0.0385289 0.00441651 0 0 0 -6.22568e-18 -8.30975e-17 -0.214706 -1.3313e-19 -1.77695e-18 -0.000290857 3.17757e-16 -2.38064e-17 2.70406e-30 0.001415 
5439 1 0.0255064 -0.015295 0.00497201 0 0 0 6.69763e-19 -1.27265e-18 -0.214706 -6.01484e-25 1.14291e-24 -0.000290857 -5.2393e-18 -2.75731e-18 2.22107e-33 0.001415 
4096 1 0.0493328 0.0413049 0.00452402 0 0 0 6.99382e-18 -2.37805e-18 -0.214706 1.33279e-19 -4.53179e-20 -0.000290857 -1.14164e-16 -3.35755e-16 4.0796e-31 0.001415 
5123 1 -0.00890863 -0.0646088 0.00546904 0 0 0 9.51981e-18 3.35094e-18 -0.214706 -8.54932e-24 -3.00933e-24 -0.000290857 2.39575e-16 -6.80617e-16 1.61866e-32 0.001415 
8779 1 0.0136066 -0.0379801 0.0060928 0 0 0 1.14884e-19 5.24092e-20 -0.214706 -1.03172e-25 -4.70663e-26 -0.000290857 -4.07833e-19 8.93991e-19 -5.00783e-34 0.001415 
6552 1 -0.00600865 -0.0297033 0.00670956 0 0 0 7.94174e-19 -1.28717e-19 -0.214706 -7.13212e-25 1.15595e-25 -0.000290857 -4.68497e-19 -2.89059e-18 -2.04104e-34 0.001415 
9890 1 -0.0540531 -0.00515523 0.0053434 0 0 0 -6.00513e-18 7.50031e-18 -0.214706 5.39294e-24 -6.73569e-24 -0.000290857 6.50014e-16 5.20434e-16 -2.86579e-31 0.001415 
4516 1 0.00201022 -0.00437069 0.00612949 0 0 0 -1.07233e-18 1.28015e-18 -0.214706 9.63012e-25 -1.14964e-24 -0.000290857 4.69473e-18 3.9326e-18 -1.2482e-32 0.001415 
5818 1 0.0744051 0.00953964 0.00563894 0 0 0 2.36867e-19 -2.27669e-19 -0.214706 -2.1272e-25 2.04459e-25 -0.000290857 -2.53195e-19 -2.63424e-19 -1.71791e-34 0.001415 
6447 1 -0.0515136 0.0117203 0.00595187 0 0 0 -1.10177e-18 1.34221e-18 -0.214706 9.89449e-25 -1.20538e-24 -0.000290857 4.4226e-18 3.63033e-18 -1.38198e-32 0.001415 
4347 1 0.0446345 0.0124385 0.00670865 0 0 0 -7.283e-19 -2.55983e-19 -0.214706 6.54053e-25 2.29887e-25 -0.000290857 -2.68515e-19 7.63956e-19 -3.25101e-35 0.001415 
9996 1 -0.0293411 0.0177597 0.00666331 0 0 0 -1.75261e-18 -1.67426e-18 -0.214706 1.57394e-24 1.50358e-24 -0.000290857 -7.58354e-18 7.93841e-18 1.0777e-32 0.001415 
4221 1 0.00751144 0.0235905 0.00602174 0 0 0 3.08445e-20 -2.27961e-19 -0.214706 -2.77e-26 2.04721e-25 -0.000290857 4.1465e-19 5.61046e-20 1.08554e-34 0.001415 
3550 1 0.0375782 0.0284832 0.0067768 0 0 0 -1.07715e-18 6.30144e-18 -0.214706 9.67341e-25 -5.65904e-24 -0.000290857 3.7128e-17 6.34657e-18 -1.16604e-32 0.001415 
2814 1 0.0624335 0.0274639 0.00607966 0 0 0 1.42419e-19 7.2262e-19 -0.214706 -1.279e-25 -6.48952e-25 -0.000290857 1.17364e-18 -2.31309e-19 1.95777e-33 0.001415 
8777 1 0.0130109 0.0334818 0.00589663 0 0 0 3.96835e-18 -6.67859e-18 -0.214706 -3.5638e-24 5.99774e-24 -0.000290857 -4.38801e-16 -2.60731e-16 3.60242e-31 0.001415 
4641 1 -0.00200478 0.0474767 0.00520121 0 0 0 -2.10647e-18 1.13424e-18 -0.214706 1.89173e-24 -1.01861e-24 -0.000290857 5.34885e-18 9.93367e-18 -2.46545e-33 0.001415 
5122 1 -0.00838197 -0.0644234 0.00824342 0 0 0 6.42983e-19 2.26328e-19 -0.214706 -7.52523e-21 -2.64886e-21 -0.000290857 4.46101e-17 -1.26734e-16 -8.96564e-31 0.001415 
8780 1 0.0123897 -0.0385353 0.00858675 0 0 0 1.52893e-17 6.97489e-18 -0.214706 2.96241e-19 1.35144e-19 -0.000290857 -1.23318e-15 2.70319e-15 2.11602e-30 0.001415 
166 1 0.0235813 -0.0390227 0.00720286 0 0 0 -6.82347e-19 -9.10765e-18 -0.214706 -1.70382e-20 -2.27418e-19 -0.000290857 3.57023e-17 -2.67483e-18 3.2888e-30 0.001415 
1407 1 0.0135434 -0.0200891 0.0074009 0 0 0 -6.80111e-19 -1.98968e-19 -0.214706 6.10777e-25 1.78684e-25 -0.000290857 -4.80079e-19 1.64101e-18 -6.54896e-34 0.001415 
8589 1 -0.0402517 -0.0187189 0.00750786 0 0 0 5.78202e-20 -7.63594e-19 -0.214706 -5.19258e-26 6.8575e-25 -0.000290857 3.63289e-18 2.75087e-19 -1.53634e-32 0.001415 
5438 1 0.0249608 -0.0142584 0.00754819 0 0 0 1.69737e-18 -3.22527e-18 -0.214706 2.35553e-19 -4.47587e-19 -0.000290857 -6.2523e-16 -3.29042e-16 -2.75871e-31 0.001415 
2100 1 -0.012979 -0.0106864 0.00761551 0 0 0 2.43211e-18 4.41281e-19 -0.214706 2.04088e-19 3.70295e-20 -0.000290857 3.33923e-18 -1.84041e-17 1.05216e-31 0.001415 
9889 1 -0.0544321 -0.00468185 0.00810767 0 0 0 -9.12038e-19 1.13912e-18 -0.214706 8.1906e-25 -1.02299e-24 -0.000290857 -6.0074e-18 -4.80983e-18 -3.20215e-34 0.001415 
4517 1 0.00302288 -0.0055796 0.00847937 0 0 0 1.07233e-18 -1.28015e-18 -0.214706 -9.63012e-25 1.14964e-24 -0.000290857 4.69473e-18 3.9326e-18 -1.2482e-32 0.001415 
7477 1 0.00556963 0.00632744 0.00834827 0 0 0 0 0 -0.214706 0 0 -0.000290857 0 0 0 0.001415 
6446 1 -0.0505093 0.0104969 0.00829783 0 0 0 -1.06121e-18 1.2928e-18 -0.214706 -4.22067e-20 5.14176e-20 -0.000290857 6.05508e-18 4.97037e-18 2.58684e-31 0.001415 
5819 1 0.0733204 0.0105822 0.00803588 0 0 0 -2.36867e-19 2.27669e-19 -0.214706 2.1272e-25 -2.04459e-25 -0.000290857 -2.53195e-19 -2.63424e-19 -1.71791e-34 0.001415 
4368 1 0.0417993 0.0124877 0.00857668 0 0 0 0 0 -0.214706 0 0 -0.000290857 0 0 0 0.001415 
1281 1 -0.00910888 0.0220965 0.00707789 0 0 0 -7.20057e-19 -2.6673e-19 -0.214706 6.46651e-25 2.39539e-25 -0.000290857 -8.98021e-19 2.42427e-18 -9.3916e-34 0.001415 
4220 1 0.00732219 0.0249892 0.00847465 0 0 0 8.41513e-19 -6.21932e-18 -0.214706 1.73025e-20 -1.27877e-19 -0.000290857 -6.25857e-17 -8.46823e-18 1.88752e-31 0.001415 
2813 1 0.0621842 0.0261988 0.00859885 0 0 0 6.91478e-19 3.5085e-18 -0.214706 1.68177e-20 8.53316e-20 -0.000290857 -5.74682e-17 1.13262e-17 -4.31113e-32 0.001415 
8776 1 0.0132433 0.0330907 0.00868982 0 0 0 -3.06634e-19 5.16053e-19 -0.214706 -1.02331e-20 1.72219e-20 -0.000290857 -1.61069e-17 -9.57054e-18 1.67782e-31 0.001415 
3969 1 -0.0266131 0.0377733 0.00809513 0 0 0 -8.65754e-18 2.70848e-17 -0.214706 -1.65166e-19 5.16716e-19 -0.000290857 -2.4288e-15 -7.76356e-16 1.48955e-30 0.001415 
7875 1 -0.0151895 0.0366812 0.00849606 0 0 0 2.31427e-18 2.73742e-18 -0.214706 4.42037e-20 5.2286e-20 -0.000290857 1.54058e-16 -1.30244e-16 -1.98908e-31 0.001415 
484 1 0.0153265 0.0412785 0.00716731 0 0 0 2.85386e-18 -2.41893e-18 -0.214706 -2.56292e-24 2.17233e-24 -0.000290857 -1.26417e-17 -1.49148e-17 1.11466e-32 0.001415 
4097 1 0.0483957 0.0416236 0.00717531 0 0 0 -5.53424e-18 1.88176e-18 -0.214706 -1.33281e-19 4.53184e-20 -0.000290857 -1.15685e-16 -3.40227e-16 4.06498e-31 0.001415 
4640 1 -0.000842548 0.0468509 0.00770451 0 0 0 -5.92115e-18 3.18828e-18 -0.214706 -1.56219e-18 8.41172e-19 -0.000290857 -3.46159e-17 -6.42873e-17 -5.01054e-32 0.001415 
7350 1 0.0388042 0.0484249 0.00740838 0 0 0 -4.4404e-21 -7.50911e-20 -0.214706 3.98772e-27 6.7436e-26 -0.000290857 2.59565e-19 -1.5349e-20 3.67272e-36 0.001415 
6406 1 -0.013834 -0.0547628 0.00989515 0 0 0 8.66099e-18 -2.52502e-18 -0.214706 1.65602e-19 -4.82795e-20 -0.000290857 -1.04246e-16 -3.57572e-16 -1.21091e-30 0.001415 
4747 1 -0.048396 -0.0516837 0.0106839 0 0 0 -2.57525e-17 3.76531e-18 -0.214706 -4.94853e-19 7.23532e-20 -0.000290857 -1.63782e-16 -1.12017e-15 -5.40304e-31 0.001415 
8904 1 0.00698378 -0.051284 0.0102033 0 0 0 0 0 -0.214706 0 0 -0.000290857 0 0 0 0.001415 
9219 1 -0.0350531 -0.0474779 0.00896704 0 0 0 0 0 -0.214706 0 0 -0.000290857 0 0 0 0.001415 
8295 1 0.0424827 -0.0477148 0.00923475 0 0 0 0 0 -0.214706 0 0 -0.000290857 0 0 0 0.001415 
165 1 0.0235443 -0.0395164 0.00998921 0 0 0 1.104e-19 1.47357e-18 -0.214706 6.72908e-21 8.98167e-20 -0.000290857 1.74365e-16 -1.30635e-17 7.83235e-30 0.001415 
6551 1 -0.00658842 -0.0296093 0.00947795 0 0 0 1.832e-18 -2.96925e-19 -0.214706 5.02245e-20 -8.14021e-21 -0.000290857 -1.77544e-17 -1.09543e-16 1.15373e-33 0.001415 
9787 1 -0.0202299 -0.023698 0.0102931 0 0 0 -3.64894e-18 -4.53735e-18 -0.214706 -7.09293e-20 -8.81984e-20 -0.000290857 -1.66422e-16 1.33837e-16 -1.00715e-30 0.001415 
1406 1 0.0148736 -0.0197 0.00986832 0 0 0 6.80111e-19 1.98968e-19 -0.214706 -6.10777e-25 -1.78684e-25 -0.000290857 -4.80079e-19 1.64101e-18 -6.54896e-34 0.001415 
8588 1 -0.0403296 -0.0176897 0.0101429 0 0 0 2.50696e-18 -3.31078e-17 -0.214706 6.28556e-20 -8.30093e-19 -0.000290857 2.52026e-15 1.90837e-16 1.67721e-29 0.001415 
8820 1 0.00980992 -0.0172644 0.0104707 0 0 0 0 0 -0.214706 0 0 -0.000290857 0 0 0 0.001415 
3529 1 0.0670132 -0.0166749 0.0107707 0 0 0 0 0 -0.214706 0 0 -0.000290857 0 0 0 0.001415 
4473 1 -0.0215554 -0.0144106 0.0102474 0 0 0 0 0 -0.214706 0 0 -0.000290857 0 0 0 0.001415 
5437 1 0.0244153 -0.0132218 0.0101244 0 0 0 4.66764e-18 -8.8692e-18 -0.214706 -9.73403e-20 1.84961e-19 -0.000290857 6.10457e-16 3.21268e-16 1.45263e-30 0.001415 
2099 1 -0.0146787 -0.0109948 0.00985709 0 0 0 1.17044e-18 2.12363e-19 -0.214706 -1.34371e-19 -2.43802e-20 -0.000290857 1.84836e-17 -1.01872e-16 7.02686e-32 0.001415 
3528 1 0.0516347 -0.000942708 0.00955936 0 0 0 -9.67915e-18 -4.40207e-18 -0.214706 -1.8471e-19 -8.40062e-20 -0.000290857 -2.08823e-16 4.59154e-16 6.85577e-31 0.001415 
2457 1 0.0227749 0.00368251 0.00988234 0 0 0 0 0 -0.214706 0 0 -0.000290857 0 0 0 0.001415 
6445 1 -0.0495051 0.00927345 0.0106438 0 0 0 -5.41782e-20 6.60017e-20 -0.214706 -3.5509e-21 4.32583e-21 -0.000290857 -7.91958e-17 -6.50087e-17 1.13389e-30 0.001415 
4431 1 -0.0620527 0.012605 0.0106383 0 0 0 -1.91255e-17 4.08563e-18 -0.214706 -5.30475e-19 1.13321e-19 -0.000290857 -5.23317e-16 -2.44973e-15 -2.15067e-29 0.001415 
4346 1 0.0459771 0.0129104 0.00915482 0 0 0 -5.31875e-18 -1.86944e-18 -0.214706 -1.15608e-19 -4.06338e-20 -0.000290857 -9.56215e-17 2.72054e-16 -4.96349e-31 0.001415 
5820 1 0.0722357 0.0116248 0.0104328 0 0 0 4.86778e-18 -4.67875e-18 -0.214706 9.30234e-20 -8.9411e-20 -0.000290857 -2.32451e-16 -2.41842e-16 -2.08882e-30 0.001415 
9995 1 -0.0283179 0.0187371 0.00911416 0 0 0 1.75261e-18 1.67426e-18 -0.214706 -1.57394e-24 -1.50358e-24 -0.000290857 -7.58354e-18 7.93841e-18 1.0777e-32 0.001415 
1280 1 -0.00826091 0.0224106 0.00975953 0 0 0 7.20057e-19 2.6673e-19 -0.214706 -6.46651e-25 -2.39539e-25 -0.000290857 -8.98021e-19 2.42427e-18 -9.3916e-34 0.001415 
3551 1 0.0378271 0.027027 0.00919056 0 0 0 1.07715e-18 -6.30144e-18 -0.214706 -9.67341e-25 5.65904e-24 -0.000290857 3.7128e-17 6.34657e-18 -1.16604e-32 0.001415 
3968 1 -0.0261983 0.0364757 0.0105757 0 0 0 8.65754e-18 -2.70848e-17 -0.214706 1.65166e-19 -5.16716e-19 -0.000290857 -2.4288e-15 -7.76356e-16 1.48955e-30 0.001415 
9745 1 -0.0323504 0.0411674 0.00988197 0 0 0 0 0 -0.214706 0 0 -0.000290857 0 0 0 0.001415 
485 1 0.0142511 0.04219 0.0096212 0 0 0 -2.85386e-18 2.41893e-18 -0.214706 2.56292e-24 -2.17233e-24 -0.000290857 -1.26417e-17 -1.49148e-17 1.11466e-32 0.001415 
4098 1 0.0474587 0.0419422 0.00982659 0 0 0 5.4224e-19 -1.84373e-19 -0.214706 3.8512e-20 -1.30949e-20 -0.000290857 -1.11634e-17 -3.28314e-17 -1.28026e-31 0.001415 
4639 1 0.000319678 0.0462251 0.0102078 0 0 0 -6.57226e-19 3.53888e-19 -0.214706 1.39038e-18 -7.48661e-19 -0.000290857 1.66092e-16 3.0846e-16 -1.12785e-30 0.001415 
7349 1 0.0388392 0.0490157 0.0101758 0 0 0 -4.3755e-19 -7.39936e-18 -0.214706 -1.36659e-20 -2.31103e-19 -0.000290857 -5.28614e-16 3.12588e-17 -1.02535e-30 0.001415 
3318 1 0.0108764 -0.0748018 0.0122649 0 0 0 0 0 -0.214706 0 0 -0.000290857 0 0 0 0.001415 
5121 1 -0.0078553 -0.064238 0.0110178 0 0 0 -5.40889e-18 -1.90391e-18 -0.214706 -1.74784e-19 -6.15235e-20 -0.000290857 -2.95906e-16 8.4065e-16 2.80289e-29 0.001415 
6407 1 -0.0157638 -0.0542001 0.0118872 0 0 0 -8.66099e-18 2.52502e-18 -0.214706 -1.65602e-19 4.82795e-20 -0.000290857 -1.04246e-16 -3.57572e-16 -1.21091e-30 0.001415 
4748 1 -0.0463698 -0.05198 0.0126373 0 0 0 1.27598e-17 -1.86564e-18 -0.214706 9.88464e-20 -1.44525e-20 -0.000290857 -7.06491e-16 -4.83198e-15 1.42948e-29 0.001415 
8903 1 0.00719176 -0.0530399 0.012413 0 0 0 -1.32389e-18 1.11769e-17 -0.214706 -4.55756e-20 3.8477e-19 -0.000290857 -2.32433e-15 -2.75314e-16 2.25851e-29 0.001415 
8421 1 -0.0125515 -0.050364 0.0120904 0 0 0 0 0 -0.214706 0 0 -0.000290857 0 0 0 0.001415 
5040 1 0.0412118 -0.051077 0.0116675 0 0 0 0 0 -0.214706 0 0 -0.000290857 0 0 0 0.001415 
9218 1 -0.0344149 -0.0491301 0.0111743 0 0 0 -3.88663e-18 1.00604e-17 -0.214706 -1.27481e-19 3.29981e-19 -0.000290857 -1.52986e-15 -5.91028e-16 -1.19747e-29 0.001415 
8294 1 0.0417911 -0.0460756 0.0114355 0 0 0 0 0 -0.214706 0 0 -0.000290857 0 0 0 0.001415 
8781 1 0.0111727 -0.0390904 0.0110807 0 0 0 -1.54042e-17 -7.0273e-18 -0.214706 -2.96241e-19 -1.35143e-19 -0.000290857 -1.23277e-15 2.70229e-15 2.11652e-30 0.001415 
7141 1 -0.0440609 -0.0300013 0.012628 0 0 0 0 0 -0.214706 0 0 -0.000290857 0 0 0 0.001415 
6550 1 -0.00716818 -0.0295154 0.0122463 0 0 0 -2.62618e-18 4.25642e-19 -0.214706 -5.02238e-20 8.14009e-21 -0.000290857 -1.72859e-17 -1.06653e-16 1.35783e-33 0.001415 
9788 1 -0.0191042 -0.0222982 0.01248 0 0 0 -9.18559e-19 -1.1422e-18 -0.214706 -1.10759e-19 -1.37725e-19 -0.000290857 2.04705e-15 -1.64624e-15 2.17446e-29 0.001415 
1405 1 0.0162037 -0.0193109 0.0123357 0 0 0 -1.77165e-17 -5.18299e-18 -0.214706 -5.16279e-19 -1.51038e-19 -0.000290857 6.06994e-16 -2.07482e-15 5.07062e-30 0.001415 
8819 1 0.00974619 -0.0192248 0.0125108 0 0 0 7.58881e-19 2.33408e-17 -0.214706 2.09802e-20 6.45286e-19 -0.000290857 -1.85322e-15 6.0254e-17 -2.05495e-29 0.001415 
4472 1 -0.0211077 -0.0159411 0.0125853 0 0 0 -8.96375e-18 3.06406e-17 -0.214706 -2.26521e-19 7.74314e-19 -0.000290857 -4.57883e-15 -1.33951e-15 -3.73904e-29 0.001415 
4389 1 -0.00210167 -0.0164576 0.0112774 0 0 0 2.50694e-18 -1.2221e-18 -0.214706 9.85736e-20 -4.80535e-20 -0.000290857 -2.20591e-16 -4.52505e-16 1.26561e-30 0.001415 
2098 1 -0.0163785 -0.0113032 0.0120987 0 0 0 -3.60255e-18 -6.53644e-19 -0.214706 -6.97165e-20 -1.26493e-20 -0.000290857 1.51444e-17 -8.34679e-17 -3.49478e-32 0.001415 
4518 1 0.00403554 -0.00678852 0.0108293 0 0 0 -1.19205e-17 1.42307e-17 -0.214706 -3.20896e-19 3.83085e-19 -0.000290857 -2.23435e-15 -1.87163e-15 -5.11921e-29 0.001415 
9888 1 -0.0548111 -0.00420847 0.0108719 0 0 0 2.8984e-18 -3.62005e-18 -0.214706 1.02115e-19 -1.27539e-19 -0.000290857 -4.39656e-16 -3.52011e-16 -8.79965e-30 0.001415 
3527 1 0.053278 -0.000195356 0.0117388 0 0 0 9.67915e-18 4.40207e-18 -0.214706 1.8471e-19 8.40062e-20 -0.000290857 -2.08823e-16 4.59154e-16 6.85577e-31 0.001415 
4852 1 -0.0576017 0.00160357 0.0124998 0 0 0 6.00553e-18 9.8538e-18 -0.214706 2.0213e-19 3.31653e-19 -0.000290857 -9.51496e-16 5.79901e-16 4.18455e-29 0.001415 
2456 1 0.0231999 0.00341526 0.0126675 0 0 0 -1.72688e-16 1.08599e-16 -0.214706 -2.54136e-18 1.59819e-18 -0.000290857 -5.80757e-17 -9.23489e-17 -7.63026e-30 0.001415 
1470 1 -0.0541433 0.00552442 0.0111195 0 0 0 1.40024e-17 1.34935e-17 -0.214706 3.87024e-19 3.72957e-19 -0.000290857 -2.21439e-15 2.29791e-15 6.86111e-29 0.001415 
7478 1 0.0063252 0.00556124 0.0109657 0 0 0 0 0 -0.214706 0 0 -0.000290857 0 0 0 0.001415 
5545 1 -0.0302182 0.00727945 0.0112598 0 0 0 0 0 -0.214706 0 0 -0.000290857 0 0 0 0.001415 
4367 1 0.0426483 0.0117219 0.0111654 0 0 0 -6.30835e-18 5.69059e-18 -0.214706 -2.22727e-19 2.00916e-19 -0.000290857 -1.31641e-16 -1.45932e-16 3.85521e-30 0.001415 
4345 1 0.0473197 0.0133822 0.011601 0 0 0 6.04705e-18 2.12542e-18 -0.214706 1.15607e-19 4.06336e-20 -0.000290857 -9.5353e-17 2.7129e-16 -4.96317e-31 0.001415 
9994 1 -0.0272948 0.0197145 0.011565 0 0 0 -1.3022e-17 -1.24399e-17 -0.214706 -3.72372e-19 -3.55726e-19 -0.000290857 1.44096e-15 -1.50839e-15 2.50544e-29 0.001415 
1279 1 -0.00741294 0.0227247 0.0124412 0 0 0 -1.53908e-17 -5.70119e-18 -0.214706 -4.31994e-19 -1.60023e-19 -0.000290857 -4.27252e-17 1.1534e-16 -1.10722e-29 0.001415 
2812 1 0.0619348 0.0249338 0.011118 0 0 0 1.37746e-18 6.98911e-18 -0.214706 5.69753e-20 2.89088e-19 -0.000290857 2.05388e-16 -4.04791e-17 -2.54213e-29 0.001415 
4219 1 0.00713294 0.0263879 0.0109276 0 0 0 9.7146e-19 -7.17971e-18 -0.214706 4.05038e-20 -2.99349e-19 -0.000290857 1.09078e-15 1.4759e-16 -4.26483e-30 0.001415 
3552 1 0.038076 0.0255707 0.0116043 0 0 0 -8.6618e-19 5.06723e-18 -0.214706 -3.39646e-20 1.98696e-19 -0.000290857 -1.113e-15 -1.90254e-16 1.97125e-29 0.001415 
9955 1 0.0480973 0.0295036 0.0118997 0 0 0 0 0 -0.214706 0 0 -0.000290857 0 0 0 0.001415 
6216 1 -0.023401 0.0310553 0.010997 0 0 0 -1.46679e-18 -6.81994e-18 -0.214706 -2.86092e-20 -1.3302e-19 -0.000290857 -1.80201e-16 3.87566e-17 -3.3003e-31 0.001415 
8775 1 0.0134757 0.0326995 0.011483 0 0 0 -5.88571e-19 9.90543e-19 -0.214706 -3.28362e-20 5.5262e-20 -0.000290857 3.38296e-16 2.01012e-16 -3.37847e-30 0.001415 
7874 1 -0.0157052 0.0360712 0.011211 0 0 0 -2.31427e-18 -2.73742e-18 -0.214706 -4.42037e-20 -5.2286e-20 -0.000290857 1.54058e-16 -1.30244e-16 -1.98908e-31 0.001415 
4099 1 0.0465216 0.0422608 0.0124779 0 0 0 -2.00182e-18 6.80662e-19 -0.214706 -3.85107e-20 1.30945e-20 -0.000290857 -9.64266e-18 -2.83589e-17 -1.26564e-31 0.001415 
9746 1 -0.0326219 0.0429159 0.0120906 0 0 0 2.13548e-18 -1.37533e-17 -0.214706 6.96074e-20 -4.48296e-19 -0.000290857 2.55968e-15 3.97444e-16 -1.96668e-29 0.001415 
486 1 0.0131757 0.0431015 0.0120751 0 0 0 1.98117e-17 -1.67924e-17 -0.214706 5.20436e-19 -4.41121e-19 -0.000290857 3.01576e-15 3.558e-15 -1.25071e-29 0.001415 
8316 1 0.0241447 0.055508 0.0126427 0 0 0 0 0 -0.214706 0 0 -0.000290857 0 0 0 0.001415 
6048 1 -0.0014895 0.0671831 0.0114903 0 0 0 -1.26586e-17 -7.60686e-19 -0.214706 -4.21026e-19 -2.53004e-20 -0.000290857 6.61733e-17 -1.1012e-15 2.34061e-30 0.001415 
3317 1 0.00879117 -0.0741345 0.0140581 0 0 0 5.60519e-16 -1.79374e-16 -0.214706 8.20704e-18 -2.62637e-18 -0.000290857 -9.68066e-16 -3.02507e-15 -5.32345e-29 0.001415 
4537 1 0.0348065 -0.0668743 0.014036 0 0 0 1.83152e-16 -3.56676e-16 -0.214706 2.6297e-18 -5.12116e-18 -0.000290857 5.64854e-15 2.90051e-15 -4.03322e-29 0.001415 
5120 1 -0.00732864 -0.0640527 0.0137922 0 0 0 -2.22948e-16 -7.8477e-17 -0.214706 -3.04203e-18 -1.07079e-18 -0.000290857 1.23103e-15 -3.49727e-15 2.95743e-29 0.001415 
4749 1 -0.0443437 -0.0522762 0.0145907 0 0 0 -4.10406e-16 6.00061e-17 -0.214706 -5.21415e-18 7.62368e-19 -0.000290857 8.67085e-16 5.93035e-15 -5.78306e-30 0.001415 
6408 1 -0.0176936 -0.0536375 0.0138793 0 0 0 6.01222e-16 -1.7528e-16 -0.214706 8.76608e-18 -2.55566e-18 -0.000290857 4.72817e-17 1.6218e-16 1.47193e-28 0.001415 
9217 1 -0.0337766 -0.0507822 0.0133815 0 0 0 -1.80198e-16 4.66436e-16 -0.214706 -2.18758e-18 5.66249e-18 -0.000290857 -1.24297e-15 -4.80196e-16 2.87223e-28 0.001415 
5039 1 0.0393096 -0.0515993 0.0136967 0 0 0 5.49348e-16 1.5084e-16 -0.214706 7.82896e-18 2.14968e-18 -0.000290857 1.63948e-16 -5.97086e-16 4.83367e-29 0.001415 
8420 1 -0.0130316 -0.0490822 0.0145674 0 0 0 1.81941e-16 -4.85818e-16 -0.214706 2.56218e-18 -6.84154e-18 -0.000290857 2.56014e-15 9.58782e-16 8.47093e-29 0.001415 
8293 1 0.0410995 -0.0444363 0.0136363 0 0 0 2.39106e-16 -5.66726e-16 -0.214706 3.44987e-18 -8.17683e-18 -0.000290857 -7.46316e-15 -3.14877e-15 8.57896e-29 0.001415 
8782 1 0.00995582 -0.0396456 0.0135746 0 0 0 4.09111e-16 1.86634e-16 -0.214706 5.5796e-18 2.54538e-18 -0.000290857 2.08291e-15 -4.56584e-15 -9.38624e-29 0.001415 
164 1 0.0235073 -0.0400101 0.0127756 0 0 0 1.55006e-17 2.06895e-16 -0.214706 3.59026e-19 4.79212e-18 -0.000290857 -3.34118e-15 2.50322e-16 1.02942e-29 0.001415 
1765 1 -0.00582286 -0.0341936 0.0143295 0 0 0 4.68323e-16 -1.46556e-16 -0.214706 6.60174e-18 -2.06594e-18 -0.000290857 -2.37844e-15 -7.60036e-15 -2.79095e-29 0.001415 
2898 1 -0.0015393 -0.0260351 0.0146017 0 0 0 3.40779e-16 -6.7273e-17 -0.214706 4.92627e-18 -9.72493e-19 -0.000290857 6.23879e-16 3.16033e-15 -2.66324e-29 0.001415 
1113 1 0.057839 -0.0250229 0.0134583 0 0 0 5.11428e-16 2.62386e-16 -0.214706 7.25275e-18 3.72099e-18 -0.000290857 1.29141e-15 -2.51714e-15 -2.23899e-28 0.001415 
2604 1 -0.0264828 -0.0239558 0.0143262 0 0 0 4.81624e-16 -2.09697e-17 -0.214706 6.83953e-18 -2.9779e-19 -0.000290857 -3.99628e-16 -9.17852e-15 2.27321e-29 0.001415 
8818 1 0.00968245 -0.0211851 0.0145509 0 0 0 1.68552e-17 5.18413e-16 -0.214706 2.30656e-19 7.09425e-18 -0.000290857 -5.68366e-16 1.84793e-17 -1.63029e-29 0.001415 
3530 1 0.0663652 -0.0174708 0.013408 0 0 0 3.23571e-16 3.97409e-16 -0.214706 4.757e-18 5.84254e-18 -0.000290857 -2.87076e-15 2.33737e-15 -2.06047e-28 0.001415 
8587 1 -0.0404076 -0.0166605 0.012778 0 0 0 2.78797e-17 -3.68188e-16 -0.214706 5.76382e-19 -7.61189e-18 -0.000290857 3.31459e-15 2.50985e-16 -6.53053e-30 0.001415 
4388 1 -0.00265555 -0.0161876 0.0140395 0 0 0 2.28167e-16 -1.11229e-16 -0.214706 3.07105e-18 -1.4971e-18 -0.000290857 1.64196e-15 3.36821e-15 -7.53599e-30 0.001415 
2097 1 -0.0180782 -0.0116116 0.0143402 0 0 0 5.57075e-16 1.01075e-16 -0.214706 7.99549e-18 1.45069e-18 -0.000290857 1.17112e-15 -6.45462e-15 -1.12545e-28 0.001415 
5436 1 0.0238697 -0.0121851 0.0127005 0 0 0 -1.26925e-18 2.41176e-18 -0.214706 4.59146e-20 -8.72446e-20 -0.000290857 1.3253e-15 6.97469e-16 -1.77244e-29 0.001415 
4519 1 0.0050482 -0.00799743 0.0131791 0 0 0 -2.47517e-16 2.95485e-16 -0.214706 -4.35036e-18 5.19345e-18 -0.000290857 -4.18485e-16 -3.50549e-16 6.22427e-29 0.001415 
9887 1 -0.0551901 -0.00373509 0.0136362 0 0 0 1.59935e-16 -1.99756e-16 -0.214706 2.176e-18 -2.71779e-18 -0.000290857 2.99399e-15 2.39714e-15 -7.05878e-30 0.001415 
4853 1 -0.0586257 -7.65915e-05 0.0145338 0 0 0 2.87672e-16 4.72009e-16 -0.214706 3.99789e-18 6.55969e-18 -0.000290857 -2.67903e-15 1.63277e-15 3.80832e-29 0.001415 
9744 1 -0.0476714 0.00124731 0.0134204 0 0 0 3.07175e-18 3.49897e-18 -0.214706 1.14468e-19 1.30388e-19 -0.000290857 -3.86039e-16 3.38903e-16 2.74638e-29 0.001415 
3403 1 0.0399954 0.00144601 0.0135554 0 0 0 -4.75288e-16 2.24917e-17 -0.214706 -6.47801e-18 3.06554e-19 -0.000290857 4.32244e-17 9.13407e-16 -1.30656e-29 0.001415 
3526 1 0.0549212 0.000551996 0.0139183 0 0 0 -5.62706e-16 -2.55918e-16 -0.214706 -8.19067e-18 -3.72511e-18 -0.000290857 -3.23085e-15 7.10389e-15 -4.20839e-28 0.001415 
3843 1 -0.0432547 0.00201405 0.0141408 0 0 0 4.49984e-16 3.06602e-16 -0.214706 6.2999e-18 4.29252e-18 -0.000290857 8.5762e-16 -1.25868e-15 3.23932e-28 0.001415 
6238 1 0.0476834 0.00358837 0.0136763 0 0 0 5.74009e-16 -3.69327e-16 -0.214706 8.41058e-18 -5.41151e-18 -0.000290857 -4.009e-16 -6.23081e-16 -1.81459e-28 0.001415 
1469 1 -0.0554428 0.00427207 0.0132993 0 0 0 3.49806e-16 3.37092e-16 -0.214706 5.11873e-18 4.93269e-18 -0.000290857 1.87823e-15 -1.94907e-15 -1.80635e-28 0.001415 
7479 1 0.00708078 0.00479504 0.0135831 0 0 0 -3.01212e-16 3.05448e-16 -0.214706 -4.24722e-18 4.30694e-18 -0.000290857 -2.84638e-15 -2.80691e-15 -7.37615e-29 0.001415 
6444 1 -0.0485008 0.00805 0.0129897 0 0 0 -7.1534e-18 8.71452e-18 -0.214706 -2.57123e-19 3.13237e-19 -0.000290857 -2.05095e-15 -1.68354e-15 -4.98582e-29 0.001415 
5546 1 -0.0286421 0.00814112 0.0134467 0 0 0 -5.71022e-16 -3.12186e-16 -0.214706 -8.28789e-18 -4.53111e-18 -0.000290857 -3.69492e-15 6.7584e-15 -1.05559e-28 0.001415 
7897 1 0.0202104 0.0106666 0.0128426 0 0 0 3.63803e-18 1.73411e-17 -0.214706 1.08303e-19 5.16236e-19 -0.000290857 -1.37312e-15 2.88072e-16 1.15218e-29 0.001415 
4366 1 0.0434972 0.010956 0.0137542 0 0 0 -3.39366e-16 3.06133e-16 -0.214706 -4.63078e-18 4.1773e-18 -0.000290857 -1.93319e-15 -2.14306e-15 4.7638e-29 0.001415 
4430 1 -0.0607358 0.0123237 0.0131274 0 0 0 -4.08606e-16 8.72874e-17 -0.214706 -5.7188e-18 1.22166e-18 -0.000290857 2.67993e-17 1.25452e-16 2.80373e-29 0.001415 
5821 1 0.071151 0.0126674 0.0128298 0 0 0 -4.86778e-18 4.67875e-18 -0.214706 -9.30234e-20 8.9411e-20 -0.000290857 -2.32451e-16 -2.41842e-16 -2.08882e-30 0.001415 
4344 1 0.0486622 0.0138541 0.0140472 0 0 0 -5.09008e-16 -1.78906e-16 -0.214706 -7.16148e-18 -2.51712e-18 -0.000290857 3.66006e-16 -1.04133e-15 1.52087e-28 0.001415 
5629 1 -0.00809486 0.0186934 0.0139205 0 0 0 4.98035e-16 8.71242e-18 -0.214706 6.92057e-18 1.21066e-19 -0.000290857 1.92267e-16 -1.09907e-14 1.63873e-29 0.001415 
9993 1 -0.0262716 0.020692 0.0140159 0 0 0 -3.16641e-16 -3.02486e-16 -0.214706 -4.04829e-18 -3.86732e-18 -0.000290857 -2.48125e-15 2.59736e-15 1.01518e-28 0.001415 
3553 1 0.038325 0.0241144 0.0140181 0 0 0 -7.45164e-17 4.35928e-16 -0.214706 -9.76278e-19 5.71132e-18 -0.000290857 1.77241e-15 3.0297e-16 3.75899e-29 0.001415 
2811 1 0.0616855 0.0236687 0.0136372 0 0 0 9.7599e-17 4.95209e-16 -0.214706 1.35779e-18 6.88933e-18 -0.000290857 -4.62986e-15 9.12482e-16 -4.60965e-29 0.001415 
4218 1 0.00694369 0.0277865 0.0133805 0 0 0 6.31876e-17 -4.66997e-16 -0.214706 8.32506e-19 -6.15276e-18 -0.000290857 -2.5824e-15 -3.49415e-16 3.16335e-29 0.001415 
9956 1 0.047731 0.0274693 0.0138327 0 0 0 9.87048e-17 5.48186e-16 -0.214706 1.44329e-18 8.0157e-18 -0.000290857 7.55478e-16 -1.36029e-16 2.73713e-30 0.001415 
6007 1 0.0347873 0.0296881 0.0136025 0 0 0 1.50332e-16 1.68443e-16 -0.214706 2.03423e-18 2.27931e-18 -0.000290857 -2.70028e-15 2.40995e-15 2.177e-29 0.001415 
8774 1 0.0137081 0.0323084 0.0142762 0 0 0 -9.97701e-17 1.67909e-16 -0.214706 -1.37964e-18 2.32188e-18 -0.000290857 -2.78559e-15 -1.65517e-15 8.91476e-30 0.001415 
6215 1 -0.0229502 0.0331509 0.0128447 0 0 0 -3.8571e-19 -1.79338e-18 -0.214706 -3.7302e-20 -1.73438e-19 -0.000290857 2.20137e-15 -4.73458e-16 -5.79563e-30 0.001415 
3967 1 -0.0257836 0.0351781 0.0130562 0 0 0 -1.47135e-16 4.60307e-16 -0.214706 -2.11742e-18 6.62427e-18 -0.000290857 -9.90568e-16 -3.1663e-16 5.02998e-30 0.001415 
7873 1 -0.0162209 0.0354611 0.0139259 0 0 0 2.18981e-16 2.5902e-16 -0.214706 3.05453e-18 3.61304e-18 -0.000290857 -5.33875e-15 4.51349e-15 -1.63957e-31 0.001415 
6847 1 -0.0500743 0.0395872 0.0140825 0 0 0 -5.43814e-16 2.34559e-16 -0.214706 -8.26542e-18 3.56506e-18 -0.000290857 4.14476e-15 9.60944e-15 -2.37824e-28 0.001415 
487 1 0.0121003 0.044013 0.014529 0 0 0 3.25423e-16 -2.75828e-16 -0.214706 4.13801e-18 -3.50738e-18 -0.000290857 -2.92591e-16 -3.45199e-16 -1.09431e-29 0.001415 
9747 1 -0.0328934 0.0446643 0.0142992 0 0 0 8.61042e-17 -5.54542e-16 -0.214706 1.18342e-18 -7.62165e-18 -0.000290857 -2.44027e-15 -3.78902e-16 -2.57522e-29 0.001415 
4638 1 0.00148191 0.0455993 0.0127111 0 0 0 4.21339e-18 -2.26873e-18 -0.214706 -4.74648e-21 2.55577e-21 -0.000290857 -2.21672e-16 -4.11681e-16 -2.82343e-30 0.001415 
7348 1 0.0388741 0.0496065 0.0129432 0 0 0 -1.49816e-17 -2.53352e-16 -0.214706 -2.03529e-19 -3.44187e-18 -0.000290857 4.08499e-15 -2.41559e-16 -5.26508e-30 0.001415 
8315 1 0.0261215 0.0546907 0.0144955 0 0 0 -5.44819e-16 2.25243e-16 -0.214706 -7.94824e-18 3.28603e-18 -0.000290857 6.73661e-17 1.62945e-16 3.40825e-28 0.001415 
4831 1 0.0293284 0.0560787 0.013112 0 0 0 4.28808e-16 -2.38371e-16 -0.214706 6.85769e-18 -3.81213e-18 -0.000290857 -2.63443e-15 -4.7391e-15 -2.07752e-28 0.001415 
6909 1 0.00964204 0.0590336 0.0131461 0 0 0 5.47532e-17 -3.29902e-17 -0.214706 1.25446e-18 -7.55847e-19 -0.000290857 3.79314e-15 6.29539e-15 -1.14917e-28 0.001415 
6047 1 -2.16486e-05 0.0672713 0.0139082 0 0 0 -5.47267e-16 -3.28865e-17 -0.214706 -7.57459e-18 -4.55174e-19 -0.000290857 9.25371e-17 -1.53992e-15 -6.29329e-30 0.001415 
7455 1 0.00864732 0.0657086 0.0140545 0 0 0 -2.29118e-17 5.4333e-16 -0.214706 -3.21412e-19 7.62196e-18 -0.000290857 -1.01056e-15 -4.26147e-17 -1.20991e-29 0.001415 
8757 1 0.00829498 0.0765507 0.013501 0 0 0 0 0 -0.214706 0 0 -0.000290857 0 0 0 0.001415 
3316 1 0.00670592 -0.0734672 0.0158512 0 0 0 -5.60519e-16 1.79374e-16 -0.214706 -8.20704e-18 2.62637e-18 -0.000290857 -9.68066e-16 -3.02507e-15 -5.32345e-29 0.001415 
2499 1 0.0564696 -0.0568217 0.0159981 0 0 0 4.74666e-18 -1.086e-17 -0.214706 9.22811e-20 -2.11132e-19 -0.000290857 -2.31294e-16 -1.01093e-16 -6.592e-31 0.001415 
8902 1 0.00739974 -0.0547957 0.0146227 0 0 0 -6.55765e-17 5.53627e-16 -0.214706 -8.99362e-19 7.59283e-18 -0.000290857 7.99846e-16 9.47409e-17 2.30692e-29 0.001415 
4054 1 -0.0359786 -0.0521436 0.0162847 0 0 0 0 0 -0.214706 0 0 -0.000290857 0 0 0 0.001415 
9216 1 -0.0331383 -0.0524344 0.0155888 0 0 0 1.71459e-16 -4.43816e-16 -0.214706 1.96655e-18 -5.09035e-18 -0.000290857 2.17837e-15 8.41568e-16 1.73553e-28 0.001415 
6409 1 -0.0196234 -0.0530749 0.0158713 0 0 0 -6.01222e-16 1.7528e-16 -0.214706 -8.76608e-18 2.55566e-18 -0.000290857 4.72817e-17 1.6218e-16 1.47193e-28 0.001415 
5038 1 0.0374074 -0.0521216 0.015726 0 0 0 -5.07668e-16 -1.39395e-16 -0.214706 -6.81057e-18 -1.87004e-18 -0.000290857 4.08595e-16 -1.48807e-15 9.59674e-29 0.001415 
8292 1 0.0404079 -0.0427971 0.0158371 0 0 0 -2.32331e-16 5.50669e-16 -0.214706 -3.23836e-18 7.67552e-18 -0.000290857 -7.55193e-15 -3.18622e-15 1.39646e-28 0.001415 
163 1 0.0234703 -0.0405039 0.0155619 0 0 0 -1.53931e-17 -2.0546e-16 -0.214706 -3.65756e-19 -4.88194e-18 -0.000290857 -2.55491e-15 1.91414e-16 1.18855e-29 0.001415 
8783 1 0.00873888 -0.0402008 0.0160686 0 0 0 -4.01064e-16 -1.82963e-16 -0.214706 -5.30225e-18 -2.41885e-18 -0.000290857 1.73151e-15 -3.79556e-15 -6.93819e-29 0.001415 
1766 1 -0.00794199 -0.0335305 0.016084 0 0 0 -4.33203e-16 1.35566e-16 -0.214706 -5.74346e-18 1.79735e-18 -0.000290857 -2.08064e-15 -6.64873e-15 9.62909e-30 0.001415 
7142 1 -0.0430179 -0.0310366 0.0150466 0 0 0 -3.62813e-16 3.60128e-16 -0.214706 -5.08598e-18 5.04833e-18 -0.000290857 2.91031e-15 2.93201e-15 -2.08332e-28 0.001415 
6549 1 -0.00774795 -0.0294214 0.0150147 0 0 0 2.62588e-16 -4.25593e-17 -0.214706 3.71938e-18 -6.02824e-19 -0.000290857 5.94573e-16 3.66847e-15 3.36052e-30 0.001415 
1112 1 0.0563793 -0.0257718 0.0157642 0 0 0 -5.11428e-16 -2.62386e-16 -0.214706 -7.25275e-18 -3.72099e-18 -0.000290857 1.29141e-15 -2.51714e-15 -2.23899e-28 0.001415 