ITEM: TIMESTEP
155000
ITEM: NUMBER OF ATOMS
10248
ITEM: BOX BOUNDS ff ff ff
-0.2 0.2
-0.2 0.2
-0.01 0.5
ITEM: ATOMS id type x y z ix iy iz vx vy vz fx fy fz omegax omegay omegaz radius 
168 1 0.0236669 -0.0378799 0.00141535 0 0 0 0.0326161 0.435345 0.0126744 -4.32991e-08 -5.77937e-07 -0.000291066 -307.754 23.057 2.92785e-12 0.001415 
5124 1 -0.00943529 -0.0647942 0.00233859 0 0 0 -1.07554e-17 -3.78588e-18 -0.230391 9.98527e-24 3.51478e-24 -0.000290836 2.43536e-16 -6.91871e-16 1.4915e-32 0.001415 
9891 1 -0.0536741 -0.00562861 0.00222306 0 0 0 7.12614e-18 -8.90043e-18 -0.230391 -6.61586e-24 8.26311e-24 -0.000290836 6.62926e-16 5.30773e-16 -2.89619e-31 0.001415 
8778 1 0.0127785 0.033873 0.00274737 0 0 0 -4.29728e-18 7.23216e-18 -0.230391 3.98956e-24 -6.71429e-24 -0.000290836 -4.43917e-16 -2.63771e-16 3.68616e-31 0.001415 
5123 1 -0.00890863 -0.0646088 0.00511296 0 0 0 9.81908e-18 3.45628e-18 -0.230391 -9.11597e-24 -3.20879e-24 -0.000290836 2.42087e-16 -6.87753e-16 1.77192e-32 0.001415 
167 1 0.0236261 -0.0384243 0.00419325 0 0 0 0.0225727 0.30129 0.0198798 -2.41173e-08 -3.21906e-07 -0.000291071 400.686 -30.0194 1.61884e-11 0.001415 
5439 1 0.0255064 -0.015295 0.00461594 0 0 0 6.6973e-19 -1.27259e-18 -0.230391 -6.21773e-25 1.18146e-24 -0.000290836 -5.23884e-18 -2.75707e-18 2.22088e-33 0.001415 
9890 1 -0.0540531 -0.00515523 0.00498732 0 0 0 -6.21415e-18 7.76137e-18 -0.230391 5.76917e-24 -7.2056e-24 -0.000290836 6.5692e-16 5.25963e-16 -2.8994e-31 0.001415 
4096 1 0.0493328 0.0413049 0.00416795 0 0 0 1.38776e-17 -4.71868e-18 -0.230391 1.22012e-19 -4.14868e-20 -0.000290836 -5.64469e-16 -1.6601e-15 3.85315e-30 0.001415 
4641 1 -0.00200478 0.0474767 0.00484514 0 0 0 -2.10637e-18 1.13419e-18 -0.230391 1.95554e-24 -1.05297e-24 -0.000290836 5.34838e-18 9.9328e-18 -2.46523e-33 0.001415 
166 1 0.023577 -0.0390796 0.00694695 0 0 0 -0.0114054 -0.152234 -0.0559547 9.09305e-09 1.2137e-07 -0.000291005 -76.3182 5.71777 -1.31808e-11 0.001415 
8779 1 0.0136066 -0.0379801 0.00573673 0 0 0 1.14878e-19 5.24066e-20 -0.230391 -1.06652e-25 -4.8654e-26 -0.000290836 -4.07798e-19 8.93913e-19 -5.0074e-34 0.001415 
6552 1 -0.00600865 -0.0297033 0.00635349 0 0 0 7.94135e-19 -1.28711e-19 -0.230391 -7.37269e-25 1.19494e-25 -0.000290836 -4.68456e-19 -2.89034e-18 -2.04086e-34 0.001415 
1407 1 0.0135434 -0.0200891 0.00704482 0 0 0 -6.80077e-19 -1.98958e-19 -0.230391 6.31379e-25 1.84711e-25 -0.000290836 -4.80038e-19 1.64086e-18 -6.54839e-34 0.001415 
4516 1 0.00201022 -0.00437069 0.00577341 0 0 0 -1.07228e-18 1.28008e-18 -0.230391 9.95496e-25 -1.18842e-24 -0.000290836 4.69433e-18 3.93226e-18 -1.24809e-32 0.001415 
5818 1 0.0744051 0.00953964 0.00528286 0 0 0 2.36856e-19 -2.27658e-19 -0.230391 -2.19895e-25 2.11356e-25 -0.000290836 -2.53173e-19 -2.63401e-19 -1.71776e-34 0.001415 
6447 1 -0.0515136 0.0117203 0.0055958 0 0 0 -1.10171e-18 1.34215e-18 -0.230391 1.02282e-24 -1.24604e-24 -0.000290836 4.42221e-18 3.63002e-18 -1.38186e-32 0.001415 
4347 1 0.0446345 0.0124385 0.00635257 0 0 0 -7.28264e-19 -2.5597e-19 -0.230391 6.76116e-25 2.37641e-25 -0.000290836 -2.68492e-19 7.63889e-19 -3.25072e-35 0.001415 
9996 1 -0.0293411 0.0177597 0.00630723 0 0 0 -1.75252e-18 -1.67418e-18 -0.230391 1.62703e-24 1.55429e-24 -0.000290836 -7.58288e-18 7.93772e-18 1.07761e-32 0.001415 
1281 1 -0.00910888 0.0220965 0.00672181 0 0 0 -7.20021e-19 -2.66717e-19 -0.230391 6.68463e-25 2.47619e-25 -0.000290836 -8.97943e-19 2.42406e-18 -9.39078e-34 0.001415 
4221 1 0.00751144 0.0235905 0.00566566 0 0 0 3.0843e-20 -2.27949e-19 -0.230391 -2.86344e-26 2.11627e-25 -0.000290836 4.14614e-19 5.60998e-20 1.08545e-34 0.001415 
3550 1 0.0375782 0.0284832 0.00642072 0 0 0 -1.0771e-18 6.30113e-18 -0.230391 9.99971e-25 -5.84993e-24 -0.000290836 3.71248e-17 6.34602e-18 -1.16594e-32 0.001415 
2814 1 0.0624335 0.0274639 0.00572358 0 0 0 1.42412e-19 7.22584e-19 -0.230391 -1.32214e-25 -6.70843e-25 -0.000290836 1.17354e-18 -2.31289e-19 1.9576e-33 0.001415 
8777 1 0.0130109 0.0334818 0.00554056 0 0 0 4.0975e-18 -6.89594e-18 -0.230391 -3.80409e-24 6.40215e-24 -0.000290836 -4.43144e-16 -2.63312e-16 3.68495e-31 0.001415 
484 1 0.0153265 0.0412785 0.00681123 0 0 0 2.85372e-18 -2.41881e-18 -0.230391 -2.64937e-24 2.24561e-24 -0.000290836 -1.26406e-17 -1.49135e-17 1.11456e-32 0.001415 
4097 1 0.0483957 0.0416236 0.00681923 0 0 0 -1.24181e-17 4.22242e-18 -0.230391 -1.22013e-19 4.14873e-20 -0.000290836 -5.6599e-16 -1.66457e-15 3.85169e-30 0.001415 
7350 1 0.0388042 0.0484249 0.0070523 0 0 0 -4.44018e-21 -7.50874e-20 -0.230391 4.12223e-27 6.97107e-26 -0.000290836 2.59542e-19 -1.53476e-20 3.67241e-36 0.001415 
5122 1 -0.00838197 -0.0644234 0.00788734 0 0 0 7.3251e-20 2.57841e-20 -0.230391 -1.51495e-20 -5.33259e-21 -0.000290836 8.64244e-17 -2.45526e-16 -5.79456e-30 0.001415 
9219 1 -0.0350531 -0.0474779 0.00861096 0 0 0 0 0 -0.230391 0 0 -0.000290836 0 0 0 0.001415 
8295 1 0.0424827 -0.0477148 0.00887867 0 0 0 0 0 -0.230391 0 0 -0.000290836 0 0 0 0.001415 
8780 1 0.0123897 -0.0385353 0.00823067 0 0 0 3.07804e-17 1.40418e-17 -0.230391 2.82045e-19 1.28667e-19 -0.000290836 -2.57823e-15 5.6516e-15 -5.18279e-30 0.001415 
8589 1 -0.0402517 -0.0187189 0.00715179 0 0 0 5.78174e-20 -7.63557e-19 -0.230391 -5.36773e-26 7.08881e-25 -0.000290836 3.63258e-18 2.75063e-19 -1.53621e-32 0.001415 
5438 1 0.0249608 -0.0142584 0.00719211 0 0 0 1.66778e-16 -3.16903e-16 -0.230391 2.96731e-18 -5.63833e-18 -0.000290836 -4.86087e-15 -2.55815e-15 -1.58608e-29 0.001415 
2100 1 -0.012979 -0.0106864 0.00725943 0 0 0 3.75798e-16 6.81844e-17 -0.230391 6.59289e-18 1.19621e-18 -0.000290836 -1.10329e-15 6.08075e-15 6.6128e-29 0.001415 
9889 1 -0.0544321 -0.00468185 0.00775159 0 0 0 3.92862e-19 -4.90678e-19 -0.230391 3.76544e-19 -4.70297e-19 -0.000290836 -1.38149e-16 -1.10609e-16 -1.21169e-31 0.001415 
4517 1 0.00302288 -0.0055796 0.0081233 0 0 0 1.07228e-18 -1.28008e-18 -0.230391 -9.95496e-25 1.18842e-24 -0.000290836 4.69433e-18 3.93226e-18 -1.24809e-32 0.001415 
7477 1 0.00556963 0.00632744 0.0079922 0 0 0 0 0 -0.230391 0 0 -0.000290836 0 0 0 0.001415 
6446 1 -0.0505093 0.0104969 0.00794175 0 0 0 -3.30851e-18 4.03054e-18 -0.230391 -4.13934e-20 5.04269e-20 -0.000290836 1.15301e-16 9.46458e-17 1.71433e-30 0.001415 
5819 1 0.0733204 0.0105822 0.0076798 0 0 0 -2.36822e-19 2.27625e-19 -0.230391 2.19864e-25 -2.11326e-25 -0.000290836 -2.38315e-19 -2.47944e-19 9.03009e-35 0.001415 
4368 1 0.0417993 0.0124877 0.00822061 0 0 0 0 0 -0.230391 0 0 -0.000290836 0 0 0 0.001415 
4346 1 0.0459771 0.0129104 0.00879874 0 0 0 -1.13762e-17 -3.99853e-18 -0.230391 -1.13083e-19 -3.97464e-20 -0.000290836 -4.20141e-16 1.19535e-15 -2.29761e-30 0.001415 
9995 1 -0.0283179 0.0187371 0.00875808 0 0 0 1.75252e-18 1.67418e-18 -0.230391 -1.62703e-24 -1.55429e-24 -0.000290836 -7.58288e-18 7.93772e-18 1.07761e-32 0.001415 
4220 1 0.00732219 0.0249892 0.00811857 0 0 0 1.79931e-18 -1.3298e-17 -0.230391 1.84224e-20 -1.36153e-19 -0.000290836 -1.36328e-15 -1.8446e-16 1.23925e-30 0.001415 
2813 1 0.0621842 0.0261988 0.00824277 0 0 0 1.646e-18 8.35165e-18 -0.230391 1.91794e-20 9.73148e-20 -0.000290836 9.8974e-16 -1.95064e-16 9.20468e-31 0.001415 
3551 1 0.0378271 0.027027 0.00883448 0 0 0 1.0771e-18 -6.30113e-18 -0.230391 -9.99971e-25 5.84993e-24 -0.000290836 3.71248e-17 6.34602e-18 -1.16594e-32 0.001415 
8776 1 0.0132433 0.0330907 0.00833374 0 0 0 -8.94566e-19 1.50552e-18 -0.230391 -1.21925e-20 2.05196e-20 -0.000290836 2.8271e-16 1.67984e-16 9.40388e-31 0.001415 
3969 1 -0.0266131 0.0377733 0.00773905 0 0 0 -1.5712e-17 4.91546e-17 -0.230391 -1.00722e-22 3.15105e-22 -0.000290836 -5.74013e-15 -1.83481e-15 7.49154e-30 0.001415 
7875 1 -0.0151895 0.0366812 0.00813998 0 0 0 4.64736e-18 5.4971e-18 -0.230391 4.49639e-20 5.31853e-20 -0.000290836 7.52159e-16 -6.35891e-16 7.91719e-31 0.001415 
4640 1 -0.000842548 0.0468509 0.00734843 0 0 0 -4.44427e-16 2.39304e-16 -0.230391 -7.95602e-18 4.28397e-18 -0.000290836 -9.70493e-16 -1.80236e-15 2.0744e-29 0.001415 
5121 1 -0.0078553 -0.064238 0.0106617 0 0 0 -2.29716e-17 -8.08595e-18 -0.230391 -5.115e-19 -1.80046e-19 -0.000290836 -2.23073e-16 6.33735e-16 1.29034e-28 0.001415 
6406 1 -0.013834 -0.0547628 0.00953907 0 0 0 1.72637e-17 -5.03305e-18 -0.230391 1.53492e-19 -4.47489e-20 -0.000290836 -4.59478e-16 -1.57604e-15 3.42275e-30 0.001415 
4747 1 -0.048396 -0.0516837 0.0103278 0 0 0 -5.15983e-17 7.54427e-18 -0.230391 -4.64975e-19 6.79846e-20 -0.000290836 -5.8509e-17 -4.00167e-16 -2.05781e-30 0.001415 
8904 1 0.00698378 -0.051284 0.00984723 0 0 0 0 0 -0.230391 0 0 -0.000290836 0 0 0 0.001415 
9218 1 -0.0344149 -0.0491301 0.0108182 0 0 0 -1.24171e-17 3.21413e-17 -0.230391 -1.86904e-19 4.83795e-19 -0.000290836 -6.23174e-15 -2.4075e-15 -8.82853e-29 0.001415 
8781 1 0.0111727 -0.0390904 0.0107246 0 0 0 -1.7533e-17 -7.99845e-18 -0.230391 4.04395e-19 1.84483e-19 -0.000290836 -3.80036e-15 8.33058e-15 -3.03132e-29 0.001415 
165 1 0.0235431 -0.0395324 0.00974112 0 0 0 -0.00268467 -0.0358338 -0.0112736 1.49163e-09 1.99096e-08 -0.000291043 -10.1226 0.75839 -1.93325e-11 0.001415 
6551 1 -0.00658842 -0.0296093 0.00912187 0 0 0 4.43537e-18 -7.18869e-19 -0.230391 4.63107e-20 -7.50588e-21 -0.000290836 -9.18278e-17 -5.66571e-16 2.29079e-31 0.001415 
9787 1 -0.0202299 -0.023698 0.00993702 0 0 0 -7.50892e-18 -9.3371e-18 -0.230391 -7.51677e-20 -9.34686e-20 -0.000290836 -5.83432e-16 4.69197e-16 -1.39341e-29 0.001415 
1406 1 0.0148736 -0.0197 0.00951224 0 0 0 6.80077e-19 1.98958e-19 -0.230391 -6.31379e-25 -1.84711e-25 -0.000290836 -4.80038e-19 1.64086e-18 -6.54839e-34 0.001415 
8588 1 -0.0403296 -0.0176897 0.00978685 0 0 0 6.98698e-18 -9.22725e-17 -0.230391 1.06178e-19 -1.40222e-18 -0.000290836 1.31221e-14 9.93618e-16 1.12423e-28 0.001415 
4389 1 -0.00210167 -0.0164576 0.0109213 0 0 0 1.47528e-17 -7.19181e-18 -0.230391 3.99358e-19 -1.94682e-19 -0.000290836 9.84294e-17 2.01911e-16 -4.14682e-29 0.001415 
8820 1 0.00980992 -0.0172644 0.0101146 0 0 0 0 0 -0.230391 0 0 -0.000290836 0 0 0 0.001415 
3529 1 0.0670132 -0.0166749 0.0104146 0 0 0 0 0 -0.230391 0 0 -0.000290836 0 0 0 0.001415 
4473 1 -0.0215554 -0.0144106 0.00989132 0 0 0 0 0 -0.230391 0 0 -0.000290836 0 0 0 0.001415 
5437 1 0.0244153 -0.0132218 0.00976829 0 0 0 -1.47269e-16 2.79833e-16 -0.230391 -2.6049e-18 4.9497e-18 -0.000290836 -6.08687e-16 -3.20336e-16 6.27733e-30 0.001415 
2099 1 -0.0146787 -0.0109948 0.00950101 0 0 0 -3.57814e-16 -6.49215e-17 -0.230391 -6.10468e-18 -1.10763e-18 -0.000290836 -7.62895e-16 4.20469e-15 4.04436e-29 0.001415 
4518 1 0.00403554 -0.00678852 0.0104732 0 0 0 -3.34479e-17 3.993e-17 -0.230391 -4.69477e-19 5.60461e-19 -0.000290836 -1.22842e-14 -1.029e-14 -3.8881e-28 0.001415 
9888 1 -0.0548111 -0.00420847 0.0105159 0 0 0 1.23042e-17 -1.53677e-17 -0.230391 -5.71556e-20 7.13864e-20 -0.000290836 1.90235e-16 1.52312e-16 4.21104e-29 0.001415 
3528 1 0.0516347 -0.000942708 0.00920328 0 0 0 -1.92506e-17 -8.75517e-18 -0.230391 -1.70314e-19 -7.74589e-20 -0.000290836 -9.20333e-16 2.0236e-15 -4.55983e-30 0.001415 
2457 1 0.0227749 0.00368251 0.00952626 0 0 0 0 0 -0.230391 0 0 -0.000290836 0 0 0 0.001415 
1470 1 -0.0541433 0.00552442 0.0107634 0 0 0 3.97313e-17 3.82872e-17 -0.230391 5.61372e-19 5.40968e-19 -0.000290836 -1.2701e-14 1.31801e-14 -1.35666e-28 0.001415 
7478 1 0.0063252 0.00556124 0.0106096 0 0 0 -7.68793e-18 7.79604e-18 -0.230391 -3.93468e-19 3.99001e-19 -0.000290836 -5.07949e-16 -5.00905e-16 -7.18647e-29 0.001415 
5545 1 -0.0302182 0.00727945 0.0109037 0 0 0 0 0 -0.230391 0 0 -0.000290836 0 0 0 0.001415 
6445 1 -0.0495051 0.00927345 0.0102877 0 0 0 -4.79819e-19 5.84533e-19 -0.230391 -1.39588e-20 1.70051e-20 -0.000290836 6.33249e-16 5.19809e-16 2.45069e-30 0.001415 
4431 1 -0.0620527 0.012605 0.0102822 0 0 0 -5.33533e-17 1.13975e-17 -0.230391 -7.28869e-19 1.55703e-19 -0.000290836 -2.69643e-15 -1.26224e-14 -9.90971e-30 0.001415 
4367 1 0.0426483 0.0117219 0.0108094 0 0 0 -2.97002e-17 2.67917e-17 -0.230391 -6.98858e-19 6.30421e-19 -0.000290836 -3.40901e-15 -3.77909e-15 -8.78384e-29 0.001415 
5820 1 0.0722357 0.0116248 0.0100767 0 0 0 9.6937e-18 -9.31726e-18 -0.230391 8.59629e-20 -8.26247e-20 -0.000290836 -1.02412e-15 -1.06549e-15 -9.66219e-30 0.001415 
1280 1 -0.00826091 0.0224106 0.00940345 0 0 0 7.20021e-19 2.66717e-19 -0.230391 -6.68463e-25 -2.47619e-25 -0.000290836 -8.97943e-19 2.42406e-18 -9.39078e-34 0.001415 
2812 1 0.0619348 0.0249338 0.010762 0 0 0 8.02531e-18 4.07198e-17 -0.230391 2.0459e-19 1.03807e-18 -0.000290836 -5.48073e-15 1.08018e-15 -2.40303e-29 0.001415 
4219 1 0.00713294 0.0263879 0.0105715 0 0 0 5.31991e-18 -3.93176e-17 -0.230391 1.20371e-19 -8.89616e-19 -0.000290836 8.4161e-15 1.13875e-15 1.30926e-28 0.001415 
6216 1 -0.023401 0.0310553 0.0106409 0 0 0 -2.99507e-18 -1.39258e-17 -0.230391 -2.83514e-20 -1.31821e-19 -0.000290836 -9.96805e-16 2.14387e-16 3.34811e-30 0.001415 
3968 1 -0.0261983 0.0364757 0.0102196 0 0 0 1.5712e-17 -4.91546e-17 -0.230391 1.00722e-22 -3.15105e-22 -0.000290836 -5.74013e-15 -1.83481e-15 7.49154e-30 0.001415 
7874 1 -0.0157052 0.0360712 0.0108549 0 0 0 2.35175e-18 2.78175e-18 -0.230391 3.09921e-19 3.66588e-19 -0.000290836 4.91862e-16 -4.1583e-16 -7.73802e-29 0.001415 
9745 1 -0.0323504 0.0411674 0.00952589 0 0 0 0 0 -0.230391 0 0 -0.000290836 0 0 0 0.001415 
485 1 0.0142511 0.04219 0.00926512 0 0 0 -2.85372e-18 2.41881e-18 -0.230391 2.64937e-24 -2.24561e-24 -0.000290836 -1.26406e-17 -1.49135e-17 1.11456e-32 0.001415 
4098 1 0.0474587 0.0419422 0.00947051 0 0 0 2.59193e-18 -8.81312e-19 -0.230391 4.03105e-20 -1.37065e-20 -0.000290836 -7.05439e-17 -2.07469e-16 -4.8619e-31 0.001415 
4639 1 0.000319678 0.0462251 0.00985173 0 0 0 4.17368e-16 -2.24735e-16 -0.230391 7.34926e-18 -3.95725e-18 -0.000290836 7.12518e-16 1.32326e-15 6.75033e-29 0.001415 
7349 1 0.0388392 0.0490157 0.00981973 0 0 0 -1.59518e-18 -2.6976e-17 -0.230391 -3.04394e-20 -5.14758e-19 -0.000290836 1.84054e-15 -1.08838e-16 -1.41652e-29 0.001415 
3318 1 0.0108764 -0.0748018 0.0119088 0 0 0 0 0 -0.230391 0 0 -0.000290836 0 0 0 0.001415 
6407 1 -0.0157638 -0.0542001 0.0115311 0 0 0 -1.72637e-17 5.03305e-18 -0.230391 -1.53492e-19 4.47489e-20 -0.000290836 -4.59478e-16 -1.57604e-15 3.42275e-30 0.001415 
4748 1 -0.0463698 -0.05198 0.0122813 0 0 0 5.16014e-18 -7.54472e-19 -0.230391 -4.0144e-19 5.86952e-20 -0.000290836 -3.42317e-15 -2.34125e-14 6.99264e-29 0.001415 
8903 1 0.00719176 -0.0530399 0.0120569 0 0 0 -5.34017e-18 4.50842e-17 -0.230391 -1.05739e-19 8.92699e-19 -0.000290836 -1.30348e-14 -1.54395e-15 9.98715e-29 0.001415 
8421 1 -0.0125515 -0.050364 0.0117343 0 0 0 3.97521e-18 -1.06146e-17 -0.230391 2.05746e-19 -5.49382e-19 -0.000290836 1.79508e-15 6.72265e-16 -2.30242e-28 0.001415 
5040 1 0.0412118 -0.051077 0.0113114 0 0 0 0 0 -0.230391 0 0 -0.000290836 0 0 0 0.001415 
8294 1 0.0417911 -0.0460756 0.0110795 0 0 0 0 0 -0.230391 0 0 -0.000290836 0 0 0 0.001415 
164 1 0.0235059 -0.0400285 0.0125278 0 0 0 -0.00275489 -0.036771 0.00992603 1.53344e-09 2.04677e-08 -0.000291055 8.21646 -0.615578 -1.82203e-11 0.001415 
7141 1 -0.0440609 -0.0300013 0.012272 0 0 0 0 0 -0.230391 0 0 -0.000290836 0 0 0 0.001415 
6550 1 -0.00716818 -0.0295154 0.0118903 0 0 0 -5.22951e-18 8.4758e-19 -0.230391 -4.631e-20 7.50576e-21 -0.000290836 -9.13594e-17 -5.63681e-16 2.29283e-31 0.001415 
9788 1 -0.0191042 -0.0222982 0.0121239 0 0 0 -2.02217e-17 -2.5145e-17 -0.230391 -6.86812e-19 -8.54029e-19 -0.000290836 1.05035e-14 -8.44692e-15 5.18464e-28 0.001415 
1405 1 0.0162037 -0.0193109 0.0119797 0 0 0 -6.51311e-17 -1.90542e-17 -0.230391 -1.31896e-18 -3.85864e-19 -0.000290836 3.61012e-15 -1.23401e-14 -2.69014e-28 0.001415 
8819 1 0.00974619 -0.0192248 0.0121547 0 0 0 2.38344e-18 7.33071e-17 -0.230391 4.00607e-20 1.23214e-18 -0.000290836 -1.47484e-14 4.79515e-16 -9.35892e-29 0.001415 
8587 1 -0.0404076 -0.0166605 0.0124219 0 0 0 5.23313e-17 -6.91106e-16 -0.230391 3.69577e-19 -4.88076e-18 -0.000290836 -2.00178e-15 -1.51577e-16 -3.84669e-29 0.001415 
4472 1 -0.0211077 -0.0159411 0.0122293 0 0 0 -2.53796e-17 8.67547e-17 -0.230391 -3.90289e-19 1.33412e-18 -0.000290836 -1.97623e-14 -5.78135e-15 -2.28623e-28 0.001415 
5436 1 0.0238697 -0.0121851 0.0123445 0 0 0 3.2038e-18 -6.0877e-18 -0.230391 1.33295e-19 -2.53281e-19 -0.000290836 9.06223e-15 4.76922e-15 9.49877e-29 0.001415 
2098 1 -0.0163785 -0.0113032 0.0117426 0 0 0 -1.79835e-17 -3.26291e-18 -0.230391 -4.88216e-19 -8.85815e-20 -0.000290836 3.40392e-16 -1.87607e-15 -2.56844e-29 0.001415 
4519 1 0.0050482 -0.00799743 0.0128231 0 0 0 -4.56787e-16 5.45312e-16 -0.230391 -3.44819e-18 4.11644e-18 -0.000290836 1.04368e-16 8.74254e-17 8.86085e-28 0.001415 
3527 1 0.053278 -0.000195356 0.0113827 0 0 0 1.92506e-17 8.75517e-18 -0.230391 1.70314e-19 7.74589e-20 -0.000290836 -9.20333e-16 2.0236e-15 -4.55983e-30 0.001415 
4852 1 -0.0576017 0.00160357 0.0121437 0 0 0 2.36419e-17 3.87914e-17 -0.230391 4.62134e-19 7.58264e-19 -0.000290836 -8.15524e-15 4.97031e-15 1.59153e-28 0.001415 
2456 1 0.0231999 0.00341526 0.0123114 0 0 0 -2.86546e-16 1.80201e-16 -0.230391 -1.8994e-18 1.19448e-18 -0.000290836 1.5911e-15 2.53008e-15 -7.61242e-29 0.001415 
6444 1 -0.0485008 0.00805 0.0126337 0 0 0 -3.43235e-17 4.18141e-17 -0.230391 -8.06709e-19 9.8276e-19 -0.000290836 -1.13627e-14 -9.32715e-15 -7.0472e-28 0.001415 
7897 1 0.0202104 0.0106666 0.0124865 0 0 0 1.24505e-17 5.93468e-17 -0.230391 2.23246e-19 1.06412e-18 -0.000290836 -1.70186e-14 3.57037e-15 -1.21925e-29 0.001415 
4430 1 -0.0607358 0.0123237 0.0127713 0 0 0 -6.85258e-16 1.46387e-16 -0.230391 -4.59969e-18 9.82597e-19 -0.000290836 5.8745e-16 2.74994e-15 -7.41671e-29 0.001415 
4345 1 0.0473197 0.0133822 0.0112449 0 0 0 -1.6329e-18 -5.73934e-19 -0.230391 -5.95301e-19 -2.09236e-19 -0.000290836 6.59395e-16 -1.87605e-15 -5.33654e-29 0.001415 
5821 1 0.071151 0.0126674 0.0124737 0 0 0 -9.69373e-18 9.31729e-18 -0.230391 -8.59629e-20 8.26247e-20 -0.000290836 -1.02413e-15 -1.06551e-15 -9.66245e-30 0.001415 
9994 1 -0.0272948 0.0197145 0.0112089 0 0 0 -4.73552e-17 -4.52382e-17 -0.230391 -9.60282e-19 -9.17354e-19 -0.000290836 9.68694e-15 -1.01402e-14 1.63343e-28 0.001415 
1279 1 -0.00741294 0.0227247 0.0120851 0 0 0 -5.11099e-17 -1.89326e-17 -0.230391 -9.27749e-19 -3.43666e-19 -0.000290836 8.56152e-16 -2.31124e-15 -5.83198e-29 0.001415 
3552 1 0.038076 0.0255707 0.0112482 0 0 0 -5.11908e-18 2.99471e-17 -0.230391 -1.38371e-19 8.09482e-19 -0.000290836 -7.6081e-15 -1.30051e-15 1.37622e-28 0.001415 
9955 1 0.0480973 0.0295036 0.0115436 0 0 0 0 0 -0.230391 0 0 -0.000290836 0 0 0 0.001415 
6215 1 -0.0229502 0.0331509 0.0124886 0 0 0 -4.8259e-18 -2.24383e-17 -0.230391 -1.3097e-19 -6.08954e-19 -0.000290836 1.70987e-14 -3.6775e-15 -1.27886e-28 0.001415 
8775 1 0.0134757 0.0326995 0.0111269 0 0 0 -5.32756e-18 8.96608e-18 -0.230391 -1.61171e-19 2.71244e-19 -0.000290836 -5.33399e-17 -3.1694e-17 1.52104e-29 0.001415 
3967 1 -0.0257836 0.0351781 0.0127001 0 0 0 -2.46596e-16 7.71467e-16 -0.230391 -1.70453e-18 5.33255e-18 -0.000290836 4.91029e-15 1.56955e-15 -3.26066e-28 0.001415 
4099 1 0.0465216 0.0422608 0.0121218 0 0 0 3.97295e-18 -1.35089e-18 -0.230391 3.71409e-19 -1.26287e-19 -0.000290836 -4.05695e-17 -1.19314e-16 -2.87141e-29 0.001415 
9746 1 -0.0326219 0.0429159 0.0117345 0 0 0 8.07613e-18 -5.20132e-17 -0.230391 1.53983e-19 -9.91705e-19 -0.000290836 1.42879e-14 2.21849e-15 -1.02289e-28 0.001415 
486 1 0.0131757 0.0431015 0.011719 0 0 0 6.1166e-17 -5.18442e-17 -0.230391 1.05109e-18 -8.90903e-19 -0.000290836 1.29374e-14 1.52636e-14 -1.0132e-28 0.001415 
4638 1 0.00148191 0.0455993 0.012355 0 0 0 1.4009e-18 -7.54323e-19 -0.230391 -1.73583e-19 9.34667e-20 -0.000290836 -1.55618e-15 -2.89007e-15 2.63671e-28 0.001415 
7348 1 0.0388741 0.0496065 0.0125872 0 0 0 -2.97388e-17 -5.02909e-16 -0.230391 -2.31555e-19 -3.91581e-18 -0.000290836 7.1713e-15 -4.24063e-16 2.15905e-30 0.001415 
8316 1 0.0241447 0.055508 0.0122866 0 0 0 0 0 -0.230391 0 0 -0.000290836 0 0 0 0.001415 
4831 1 0.0293284 0.0560787 0.0127559 0 0 0 7.67868e-16 -4.26851e-16 -0.230391 5.76645e-18 -3.20552e-18 -0.000290836 -1.15574e-14 -2.07906e-14 -9.05768e-28 0.001415 
6909 1 0.00964204 0.0590336 0.01279 0 0 0 1.37327e-16 -8.27431e-17 -0.230391 1.83228e-18 -1.104e-18 -0.000290836 2.0642e-14 3.4259e-14 -8.22854e-28 0.001415 
6048 1 -0.0014895 0.0671831 0.0111342 0 0 0 -5.4144e-17 -3.25363e-18 -0.230391 -1.18982e-18 -7.14991e-20 -0.000290836 6.0741e-16 -1.0108e-14 -5.14891e-29 0.001415 
3317 1 0.00879117 -0.0741345 0.013702 0 0 0 1.16589e-15 -3.73102e-16 -0.230391 2.74218e-18 -8.77536e-19 -0.000290836 -1.12074e-14 -3.50214e-14 -1.35813e-27 0.001415 
4537 1 0.0348065 -0.0668743 0.0136799 0 0 0 4.48897e-16 -8.74198e-16 -0.230391 1.40026e-18 -2.72691e-18 -0.000290836 8.09798e-15 4.15828e-15 3.03751e-29 0.001415 
5120 1 -0.00732864 -0.0640527 0.0134361 0 0 0 -5.44539e-16 -1.91676e-16 -0.230391 -1.15987e-18 -4.0827e-19 -0.000290836 2.2121e-15 -6.28442e-15 1.65642e-28 0.001415 
8902 1 0.00739974 -0.0547957 0.0142666 0 0 0 -1.70247e-16 1.4373e-15 -0.230391 -5.73193e-19 4.83916e-18 -0.000290836 1.82211e-14 2.15827e-15 -1.27747e-29 0.001415 
4749 1 -0.0443437 -0.0522762 0.0142347 0 0 0 -1.11743e-15 1.63381e-16 -0.230391 -3.00797e-18 4.398e-19 -0.000290836 4.86163e-15 3.32507e-14 -1.24722e-28 0.001415 
6408 1 -0.0176936 -0.0536375 0.0135232 0 0 0 1.70656e-15 -4.97529e-16 -0.230391 2.76364e-17 -8.05708e-18 -0.000290836 -9.09174e-15 -3.11853e-14 -1.07902e-27 0.001415 
9217 1 -0.0337766 -0.0507822 0.0130255 0 0 0 -2.88791e-16 7.47526e-16 -0.230391 -1.85577e-18 4.80359e-18 -0.000290836 6.93177e-16 2.67794e-16 9.18744e-28 0.001415 
5039 1 0.0393096 -0.0515993 0.0133407 0 0 0 1.24728e-15 3.42479e-16 -0.230391 1.22922e-17 3.37518e-18 -0.000290836 5.03547e-15 -1.83388e-14 1.14753e-27 0.001415 
8420 1 -0.0130316 -0.0490822 0.0142113 0 0 0 4.67328e-16 -1.24786e-15 -0.230391 1.44629e-18 -3.86188e-18 -0.000290836 -1.08234e-14 -4.05339e-15 1.39428e-27 0.001415 
8293 1 0.0410995 -0.0444363 0.0132803 0 0 0 5.50481e-16 -1.30474e-15 -0.230391 3.59679e-18 -8.52506e-18 -0.000290836 -4.48294e-14 -1.89139e-14 6.51937e-28 0.001415 
8782 1 0.00995582 -0.0396456 0.0132186 0 0 0 1.07216e-15 4.89112e-16 -0.230391 2.71761e-18 1.23976e-18 -0.000290836 1.20541e-14 -2.64232e-14 -8.66909e-28 0.001415 
1765 1 -0.00582286 -0.0341936 0.0139734 0 0 0 1.2407e-15 -3.88261e-16 -0.230391 4.81538e-18 -1.50692e-18 -0.000290836 -1.40619e-14 -4.49351e-14 4.59842e-28 0.001415 
7142 1 -0.0430179 -0.0310366 0.0146905 0 0 0 -9.49213e-16 9.42187e-16 -0.230391 -3.17274e-18 3.14926e-18 -0.000290836 2.19527e-14 2.21164e-14 -1.64852e-29 0.001415 
6549 1 -0.00774795 -0.0294214 0.0146586 0 0 0 6.47707e-16 -1.04978e-16 -0.230391 1.96231e-18 -3.18044e-19 -0.000290836 7.1272e-16 4.39743e-15 7.21717e-29 0.001415 
2898 1 -0.0015393 -0.0260351 0.0142456 0 0 0 8.32728e-16 -1.64388e-16 -0.230391 2.65679e-18 -5.24475e-19 -0.000290836 -4.93984e-16 -2.50233e-15 -5.63531e-29 0.001415 
1113 1 0.057839 -0.0250229 0.0131022 0 0 0 1.23784e-15 6.35068e-16 -0.230391 1.34615e-17 6.90635e-18 -0.000290836 7.90517e-15 -1.54083e-14 4.14743e-28 0.001415 
2604 1 -0.0264828 -0.0239558 0.0139701 0 0 0 1.29328e-15 -5.63086e-17 -0.230391 1.4927e-17 -6.49912e-19 -0.000290836 -2.01473e-15 -4.62737e-14 -8.0858e-29 0.001415 
7959 1 -0.0480224 -0.0227988 0.0146521 0 0 0 -1.30157e-15 8.11822e-16 -0.230391 -5.49667e-18 3.42842e-18 -0.000290836 2.05759e-14 3.29887e-14 1.9856e-27 0.001415 
8818 1 0.00968245 -0.0211851 0.0141948 0 0 0 4.42082e-17 1.35971e-15 -0.230391 1.42462e-19 4.38168e-18 -0.000290836 1.45059e-14 -4.71631e-16 -2.23557e-29 0.001415 
9789 1 -0.0179785 -0.0208985 0.0143108 0 0 0 -9.88998e-16 -1.22979e-15 -0.230391 -3.11784e-18 -3.87693e-18 -0.000290836 -2.66926e-14 2.14662e-14 -4.30846e-28 0.001415 
4471 1 -0.0206599 -0.0174716 0.0145672 0 0 0 -3.34983e-16 1.14507e-15 -0.230391 -8.88232e-19 3.03623e-18 -0.000290836 8.41203e-15 2.46089e-15 4.0216e-29 0.001415 
1404 1 0.0175339 -0.0189217 0.0144471 0 0 0 -1.19105e-15 -3.48443e-16 -0.230391 -2.95657e-18 -8.6495e-19 -0.000290836 -3.08863e-15 1.05575e-14 6.84923e-28 0.001415 
3530 1 0.0663652 -0.0174708 0.013052 0 0 0 7.77989e-16 9.55525e-16 -0.230391 2.6959e-18 3.3111e-18 -0.000290836 5.45345e-15 -4.4402e-15 -1.01545e-27 0.001415 
4388 1 -0.00265555 -0.0161876 0.0136834 0 0 0 5.61846e-16 -2.73893e-16 -0.230391 1.26713e-18 -6.17713e-19 -0.000290836 2.01987e-15 4.14343e-15 5.26705e-29 0.001415 
2097 1 -0.0180782 -0.0116116 0.0139842 0 0 0 1.44345e-15 2.61899e-16 -0.230391 5.03978e-18 9.14413e-19 -0.000290836 7.16099e-15 -3.94677e-14 -1.14505e-27 0.001415 
9887 1 -0.0551901 -0.00373509 0.0132801 0 0 0 3.91254e-16 -4.8867e-16 -0.230391 8.61114e-19 -1.07552e-18 -0.000290836 5.70807e-15 4.57017e-15 -1.50554e-29 0.001415 
4853 1 -0.0586257 -7.65915e-05 0.0141778 0 0 0 7.45133e-16 1.22261e-15 -0.230391 2.55535e-18 4.19279e-18 -0.000290836 1.02208e-14 -6.22922e-15 -1.17885e-27 0.001415 
9743 1 -0.0492029 -0.00049722 0.014683 0 0 0 6.52062e-16 7.42753e-16 -0.230391 1.91122e-18 2.17704e-18 -0.000290836 2.56657e-14 -2.25319e-14 1.0306e-27 0.001415 
9744 1 -0.0476714 0.00124731 0.0130643 0 0 0 1.39668e-17 1.59094e-17 -0.230391 2.98746e-19 3.40296e-19 -0.000290836 -6.66762e-15 5.8535e-15 -9.84683e-29 0.001415 
3403 1 0.0399954 0.00144601 0.0131993 0 0 0 -1.10229e-15 5.21626e-17 -0.230391 -1.07831e-17 5.10281e-19 -0.000290836 9.75793e-16 2.06202e-14 -1.45766e-28 0.001415 
3526 1 0.0549212 0.000551996 0.0135622 0 0 0 -1.43814e-15 -6.54067e-16 -0.230391 -5.41518e-18 -2.46282e-18 -0.000290836 -1.89786e-14 4.17296e-14 -1.36455e-27 0.001415 
3843 1 -0.0432547 0.00201405 0.0137848 0 0 0 1.18724e-15 8.08944e-16 -0.230391 4.43467e-18 3.02162e-18 -0.000290836 1.37529e-14 -2.01845e-14 1.55778e-27 0.001415 
6238 1 0.0476834 0.00358837 0.0133203 0 0 0 1.46108e-15 -9.40081e-16 -0.230391 1.27466e-17 -8.2014e-18 -0.000290836 -1.95344e-14 -3.03604e-14 7.5841e-28 0.001415 
1469 1 -0.0554428 0.00427207 0.0129432 0 0 0 5.9843e-16 5.7668e-16 -0.230391 4.14283e-18 3.99225e-18 -0.000290836 9.19412e-15 -9.5409e-15 -1.4054e-28 0.001415 
7479 1 0.00708078 0.00479504 0.0132271 0 0 0 -7.39059e-16 7.49452e-16 -0.230391 -1.81758e-18 1.84314e-18 -0.000290836 2.07755e-15 2.04874e-15 5.10105e-28 0.001415 
5546 1 -0.0286421 0.00814112 0.0130906 0 0 0 -1.0436e-15 -5.7055e-16 -0.230391 -8.04966e-18 -4.40087e-18 -0.000290836 -1.52496e-14 2.78932e-14 -2.30895e-27 0.001415 
7898 1 0.0197791 0.00861083 0.014383 0 0 0 2.84529e-16 1.35624e-15 -0.230391 9.48885e-19 4.52296e-18 -0.000290836 2.91377e-14 -6.11289e-15 -4.32986e-28 0.001415 
4366 1 0.0434972 0.010956 0.0133981 0 0 0 -8.24118e-16 7.43414e-16 -0.230391 -1.87597e-18 1.69226e-18 -0.000290836 4.40476e-15 4.88293e-15 -1.40149e-28 0.001415 
1176 1 0.023371 0.01534 0.0143845 0 0 0 1.75703e-17 1.48881e-15 -0.230391 6.60084e-20 5.59317e-18 -0.000290836 2.01682e-14 -2.38017e-16 -3.16021e-30 0.001415 
4344 1 0.0486622 0.0138541 0.0136911 0 0 0 -1.30212e-15 -4.57668e-16 -0.230391 -3.9185e-18 -1.37728e-18 -0.000290836 -4.91488e-15 1.39834e-14 8.92455e-28 0.001415 
5629 1 -0.00809486 0.0186934 0.0135644 0 0 0 1.2264e-15 2.14541e-17 -0.230391 1.33789e-17 2.34046e-19 -0.000290836 8.1397e-16 -4.65295e-14 1.50985e-28 0.001415 
9993 1 -0.0262716 0.020692 0.0136598 0 0 0 -8.31139e-16 -7.93985e-16 -0.230391 -1.81153e-18 -1.73055e-18 -0.000290836 -1.61432e-14 1.68986e-14 1.01632e-27 0.001415 
3553 1 0.038325 0.0241144 0.013662 0 0 0 -1.97325e-16 1.15437e-15 -0.230391 -4.70588e-19 2.75298e-18 -0.000290836 1.85773e-14 3.17555e-15 3.67478e-28 0.001415 
2811 1 0.0616855 0.0236687 0.0132811 0 0 0 2.47542e-16 1.25601e-15 -0.230391 6.86867e-19 3.48511e-18 -0.000290836 5.33177e-15 -1.05082e-15 -3.12492e-28 0.001415 
4218 1 0.00694369 0.0277865 0.0130244 0 0 0 1.41298e-16 -1.04428e-15 -0.230391 6.45297e-19 -4.76916e-18 -0.000290836 -2.05742e-14 -2.78381e-15 9.4457e-29 0.001415 
9956 1 0.047731 0.0274693 0.0134766 0 0 0 2.42189e-16 1.34507e-15 -0.230391 2.724e-18 1.51285e-17 -0.000290836 1.70195e-14 -3.06449e-15 -7.718e-29 0.001415 
6007 1 0.0347873 0.0296881 0.0132465 0 0 0 3.78948e-16 4.24602e-16 -0.230391 9.90346e-19 1.10966e-18 -0.000290836 -2.2712e-15 2.027e-15 2.24919e-29 0.001415 
8774 1 0.0137081 0.0323084 0.0139201 0 0 0 -2.44634e-16 4.1171e-16 -0.230391 -5.43424e-19 9.14562e-19 -0.000290836 -4.72064e-15 -2.80496e-15 -2.77156e-29 0.001415 
6214 1 -0.0224995 0.0352466 0.0143364 0 0 0 -2.80938e-16 -1.30624e-15 -0.230391 -9.58375e-19 -4.45602e-18 -0.000290836 -3.42381e-14 7.36372e-15 1.00177e-27 0.001415 
7873 1 -0.0162209 0.0354611 0.0135698 0 0 0 5.36571e-16 6.3468e-16 -0.230391 1.27212e-18 1.50472e-18 -0.000290836 -6.76101e-15 5.7159e-15 4.37468e-28 0.001415 
6847 1 -0.0500743 0.0395872 0.0137265 0 0 0 -1.29042e-15 5.56585e-16 -0.230391 -1.39335e-17 6.00981e-18 -0.000290836 2.17286e-14 5.03767e-14 -2.26644e-27 0.001415 
487 1 0.0121003 0.044013 0.0141729 0 0 0 8.59666e-16 -7.28652e-16 -0.230391 1.8877e-18 -1.60001e-18 -0.000290836 -9.40723e-15 -1.10987e-14 2.45229e-28 0.001415 
9747 1 -0.0328934 0.0446643 0.0139432 0 0 0 2.22578e-16 -1.43348e-15 -0.230391 7.38588e-19 -4.75678e-18 -0.000290836 -2.22571e-14 -3.45588e-15 1.41121e-28 0.001415 
8988 1 0.0105277 0.0515901 0.0144304 0 0 0 5.16395e-16 -7.3056e-16 -0.230391 1.53601e-18 -2.17304e-18 -0.000290836 -2.96886e-14 -2.09853e-14 -7.55419e-29 0.001415 
8315 1 0.0261215 0.0546907 0.0141395 0 0 0 -1.4037e-15 5.80329e-16 -0.230391 -5.79562e-18 2.39607e-18 -0.000290836 9.4097e-15 2.27602e-14 -3.57043e-28 0.001415 
6908 1 0.00786074 0.0601069 0.0147094 0 0 0 1.09758e-15 -6.61322e-16 -0.230391 3.06757e-18 -1.84829e-18 -0.000290836 -6.47274e-15 -1.07427e-14 1.32329e-27 0.001415 
6047 1 -2.16486e-05 0.0672713 0.0135521 0 0 0 -1.38741e-15 -8.33726e-17 -0.230391 -3.89468e-18 -2.3404e-19 -0.000290836 -8.95115e-16 1.48957e-14 1.20403e-28 0.001415 
7455 1 0.00864732 0.0657086 0.0136985 0 0 0 -6.06324e-17 1.43783e-15 -0.230391 -2.29033e-19 5.43127e-18 -0.000290836 1.38527e-14 5.84159e-16 -5.06055e-29 0.001415 
8757 1 0.00829498 0.0765507 0.013145 0 0 0 0 0 -0.230391 0 0 -0.000290836 0 0 0 0.001415 