ITEM: TIMESTEP
185000
ITEM: NUMBER OF ATOMS
10248
ITEM: BOX BOUNDS ff ff ff
-0.2 0.2
-0.2 0.2
-0.01 0.5
ITEM: ATOMS id type x y z ix iy iz vx vy vz fx fy fz omegax omegay omegaz radius 
168 1 0.0236865 -0.0376187 0.00142119 0 0 0 0.0326152 0.435333 0.00678811 -4.3289e-08 -5.77801e-07 -0.000291059 -307.744 23.0562 2.92775e-12 0.001415 
5124 1 -0.00943529 -0.0647942 0.00219859 0 0 0 -1.07552e-17 -3.78581e-18 -0.236272 1.01074e-23 3.55779e-24 -0.000290828 2.43529e-16 -6.91848e-16 1.49145e-32 0.001415 
9891 1 -0.0536741 -0.00562861 0.00208306 0 0 0 7.12601e-18 -8.90027e-18 -0.236272 -6.69681e-24 8.3642e-24 -0.000290828 6.62905e-16 5.30755e-16 -2.8961e-31 0.001415 
8778 1 0.0127785 0.033873 0.00260737 0 0 0 -4.2972e-18 7.23202e-18 -0.236272 4.03838e-24 -6.79644e-24 -0.000290828 -4.43903e-16 -2.63763e-16 3.68604e-31 0.001415 
5123 1 -0.00890863 -0.0646088 0.00497297 0 0 0 9.81889e-18 3.45622e-18 -0.236272 -9.2275e-24 -3.24805e-24 -0.000290828 2.42079e-16 -6.87731e-16 1.77186e-32 0.001415 
167 1 0.0236397 -0.0382436 0.00420341 0 0 0 0.0225722 0.301283 0.0139935 -2.41021e-08 -3.21703e-07 -0.000291065 400.673 -30.0184 1.61878e-11 0.001415 
5439 1 0.0255064 -0.015295 0.00447594 0 0 0 6.69717e-19 -1.27256e-18 -0.236272 -6.2938e-25 1.19592e-24 -0.000290828 -5.23867e-18 -2.75698e-18 2.22081e-33 0.001415 
9890 1 -0.0540531 -0.00515523 0.00484733 0 0 0 -6.21403e-18 7.76122e-18 -0.236272 5.83976e-24 -7.29376e-24 -0.000290828 6.56898e-16 5.25946e-16 -2.8993e-31 0.001415 
4096 1 0.0493328 0.0413049 0.00402795 0 0 0 1.63042e-17 -5.54379e-18 -0.236272 1.18016e-19 -4.01281e-20 -0.000290828 -8.22389e-16 -2.41864e-15 4.71431e-30 0.001415 
4641 1 -0.00200478 0.0474767 0.00470514 0 0 0 -2.10633e-18 1.13417e-18 -0.236272 1.97946e-24 -1.06585e-24 -0.000290828 5.34821e-18 9.93248e-18 -2.46515e-33 0.001415 
166 1 0.0235702 -0.0391709 0.00691161 0 0 0 -0.0114052 -0.152232 -0.0618397 9.13957e-09 1.21991e-07 -0.000291 -76.3157 5.71758 -1.31804e-11 0.001415 
8779 1 0.0136066 -0.0379801 0.00559673 0 0 0 2.27092e-19 1.03598e-19 -0.236272 -2.13414e-25 -9.73583e-26 -0.000290828 1.55089e-18 -3.39963e-18 2.49955e-32 0.001415 
6552 1 -0.00600865 -0.0297033 0.00621349 0 0 0 9.24452e-19 -1.49832e-19 -0.236272 -8.68772e-25 1.40807e-25 -0.000290828 -1.49625e-19 -9.23178e-19 -2.17648e-33 0.001415 
1407 1 0.0135434 -0.0200891 0.00690482 0 0 0 -8.62013e-19 -2.52184e-19 -0.236272 8.10094e-25 2.36994e-25 -0.000290828 -5.83721e-19 1.99527e-18 9.84943e-36 0.001415 
4516 1 0.00201022 -0.00437069 0.00563342 0 0 0 -1.24697e-18 1.48863e-18 -0.236272 1.17186e-24 -1.39897e-24 -0.000290828 5.59515e-18 4.68685e-18 -2.896e-32 0.001415 
5818 1 0.0744051 0.00953964 0.00514286 0 0 0 2.36851e-19 -2.27654e-19 -0.236272 -2.22586e-25 2.13942e-25 -0.000290828 -2.53164e-19 -2.63393e-19 -1.7177e-34 0.001415 
6447 1 -0.0515136 0.0117203 0.0054558 0 0 0 -1.27929e-18 1.55847e-18 -0.236272 1.20224e-24 -1.46461e-24 -0.000290828 3.38244e-18 2.77651e-18 -3.23429e-32 0.001415 
4347 1 0.0446345 0.0124385 0.00621257 0 0 0 -9.1447e-19 -3.21418e-19 -0.236272 8.59391e-25 3.02059e-25 -0.000290828 8.33351e-19 -2.37098e-18 -1.24875e-32 0.001415 
9996 1 -0.0293411 0.0177597 0.00616723 0 0 0 -1.98983e-18 -1.90088e-18 -0.236272 1.86998e-24 1.78639e-24 -0.000290828 -9.27e-18 9.70379e-18 1.08545e-32 0.001415 
1281 1 -0.00910888 0.0220965 0.00658182 0 0 0 -8.68972e-19 -3.21893e-19 -0.236272 8.16634e-25 3.02505e-25 -0.000290828 -1.07238e-18 2.89496e-18 -1.24272e-33 0.001415 
4221 1 0.00751144 0.0235905 0.00552566 0 0 0 5.01584e-20 -3.70703e-19 -0.236272 -4.71373e-26 3.48375e-25 -0.000290828 3.31773e-18 4.48909e-19 -1.15649e-32 0.001415 
3550 1 0.0375782 0.0284832 0.00628072 0 0 0 -1.26245e-18 7.38546e-18 -0.236272 1.18641e-24 -6.94063e-24 -0.000290828 8.61974e-17 1.47344e-17 -2.39917e-32 0.001415 
2814 1 0.0624335 0.0274639 0.00558359 0 0 0 1.78697e-19 9.06692e-19 -0.236272 -1.67934e-25 -8.52082e-25 -0.000290828 -1.67113e-18 3.29357e-19 1.11999e-32 0.001415 
8777 1 0.0130109 0.0334818 0.00540056 0 0 0 4.05373e-18 -6.82228e-18 -0.236272 -3.80958e-24 6.41138e-24 -0.000290828 -4.422e-16 -2.62751e-16 3.68192e-31 0.001415 
484 1 0.0153265 0.0412785 0.00667123 0 0 0 3.21061e-18 -2.72131e-18 -0.236272 -3.01724e-24 2.55741e-24 -0.000290828 -1.73283e-17 -2.04439e-17 1.33311e-32 0.001415 
4097 1 0.0483957 0.0416236 0.00667923 0 0 0 -1.46223e-17 4.97189e-18 -0.236272 -1.18018e-19 4.01286e-20 -0.000290828 -8.20995e-16 -2.41454e-15 4.69413e-30 0.001415 
7350 1 0.0388042 0.0484249 0.0069123 0 0 0 -8.37054e-21 -1.41553e-19 -0.236272 7.86638e-27 1.33028e-25 -0.000290828 -2.91745e-18 1.72519e-19 1.45394e-33 0.001415 
5122 1 -0.00838197 -0.0644234 0.00774734 0 0 0 -7.54338e-17 -2.65525e-17 -0.236272 -7.60993e-18 -2.67867e-18 -0.000290828 -1.47625e-16 4.19392e-16 -1.96532e-29 0.001415 
9219 1 -0.0350531 -0.0474779 0.00847096 0 0 0 0 0 -0.236272 0 0 -0.000290828 0 0 0 0.001415 
8295 1 0.0424827 -0.0477148 0.00873868 0 0 0 0 0 -0.236272 0 0 -0.000290828 0 0 0 0.001415 
8780 1 0.0123897 -0.0385353 0.00809067 0 0 0 3.63672e-17 1.65905e-17 -0.236272 2.81511e-19 1.28424e-19 -0.000290828 -2.99023e-15 6.55473e-15 -1.1434e-29 0.001415 
8589 1 -0.0402517 -0.0187189 0.00701179 0 0 0 7.32393e-20 -9.67224e-19 -0.236272 -6.88281e-26 9.08968e-25 -0.000290828 -4.51283e-18 -3.41717e-19 -1.37896e-31 0.001415 
5438 1 0.0249608 -0.0142584 0.00705212 0 0 0 3.63893e-16 -6.91451e-16 -0.236272 1.57272e-17 -2.98841e-17 -0.000290828 -1.56259e-14 -8.22354e-15 -1.14103e-28 0.001415 
2100 1 -0.012979 -0.0106864 0.00711943 0 0 0 8.51732e-16 1.54538e-16 -0.236272 3.85088e-17 6.98701e-18 -0.000290828 6.42437e-17 -3.54079e-16 1.78654e-28 0.001415 
9889 1 -0.0544321 -0.00468185 0.00761159 0 0 0 9.14752e-17 -1.14251e-16 -0.236272 8.26104e-18 -1.03179e-17 -0.000290828 -2.18861e-15 -1.75231e-15 -2.54838e-31 0.001415 
4517 1 0.00302288 -0.0055796 0.0079833 0 0 0 1.24697e-18 -1.48863e-18 -0.236272 -1.17186e-24 1.39897e-24 -0.000290828 5.59515e-18 4.68685e-18 -2.896e-32 0.001415 
7477 1 0.00556963 0.00632744 0.0078522 0 0 0 0 0 -0.236272 0 0 -0.000290828 0 0 0 0.001415 
6446 1 -0.0505093 0.0104969 0.00780176 0 0 0 -4.06105e-18 4.94731e-18 -0.236272 -2.9839e-19 3.63509e-19 -0.000290828 1.5895e-16 1.30476e-16 2.764e-30 0.001415 
5819 1 0.0733204 0.0105822 0.0075398 0 0 0 1.15704e-16 -1.11211e-16 -0.236272 1.1533e-17 -1.10852e-17 -0.000290828 -1.52859e-16 -1.59035e-16 1.58306e-29 0.001415 
4368 1 0.0417993 0.0124877 0.00808061 0 0 0 0 0 -0.236272 0 0 -0.000290828 0 0 0 0.001415 
4346 1 0.0459771 0.0129104 0.00865875 0 0 0 -1.35187e-17 -4.75154e-18 -0.236272 -1.17245e-19 -4.12093e-20 -0.000290828 -5.23392e-16 1.48911e-15 -5.68402e-31 0.001415 
9995 1 -0.0283179 0.0187371 0.00861808 0 0 0 1.98983e-18 1.90088e-18 -0.236272 -1.86998e-24 -1.78639e-24 -0.000290828 -9.27e-18 9.70379e-18 1.08545e-32 0.001415 
4220 1 0.00732219 0.0249892 0.00797857 0 0 0 2.15687e-18 -1.59407e-17 -0.236272 1.88512e-20 -1.39323e-19 -0.000290828 -2.45123e-15 -3.31666e-16 6.51876e-31 0.001415 
2813 1 0.0621842 0.0261988 0.00810277 0 0 0 2.01201e-18 1.02088e-17 -0.236272 2.0682e-20 1.04938e-19 -0.000290828 2.19373e-15 -4.32355e-16 1.635e-30 0.001415 
3551 1 0.0378271 0.027027 0.00869448 0 0 0 1.26245e-18 -7.38546e-18 -0.236272 -1.18641e-24 6.94063e-24 -0.000290828 8.61974e-17 1.47344e-17 -2.39917e-32 0.001415 
8776 1 0.0132433 0.0330907 0.00819374 0 0 0 -1.11095e-18 1.86969e-18 -0.236272 -1.36115e-20 2.29077e-20 -0.000290828 6.02178e-16 3.57809e-16 9.41949e-31 0.001415 
3969 1 -0.0266131 0.0377733 0.00759905 0 0 0 -8.34399e-17 2.61039e-16 -0.236272 -6.51708e-18 2.03885e-17 -0.000290828 -6.87207e-15 -2.19663e-15 1.41355e-29 0.001415 
7875 1 -0.0151895 0.0366812 0.00799998 0 0 0 5.58872e-18 6.61058e-18 -0.236272 4.83044e-20 5.71366e-20 -0.000290828 1.11091e-15 -9.39188e-16 3.23542e-30 0.001415 
4640 1 -0.000842548 0.0468509 0.00720843 0 0 0 -8.98493e-16 4.83799e-16 -0.236272 -3.51248e-17 1.89132e-17 -0.000290828 3.03393e-15 5.6345e-15 -2.10224e-28 0.001415 
5121 1 -0.0078553 -0.064238 0.0105217 0 0 0 4.17241e-17 1.46868e-17 -0.236272 7.03824e-18 2.47744e-18 -0.000290828 -6.3019e-16 1.79033e-15 1.90931e-28 0.001415 
6406 1 -0.013834 -0.0547628 0.00939907 0 0 0 2.03231e-17 -5.92496e-18 -0.236272 1.49078e-19 -4.34621e-20 -0.000290828 -6.59141e-16 -2.2609e-15 8.80884e-30 0.001415 
4747 1 -0.048396 -0.0516837 0.0101878 0 0 0 -6.09066e-17 8.90524e-18 -0.236272 -4.55511e-19 6.66009e-20 -0.000290828 1.03223e-16 7.05983e-16 1.60154e-30 0.001415 
8904 1 0.00698378 -0.051284 0.00970723 0 0 0 0 0 -0.236272 0 0 -0.000290828 0 0 0 0.001415 
9218 1 -0.0344149 -0.0491301 0.0106782 0 0 0 -1.64043e-17 4.2462e-17 -0.236272 -2.07514e-19 5.37144e-19 -0.000290828 -9.42364e-15 -3.64062e-15 -7.62146e-29 0.001415 
8781 1 0.0111727 -0.0390904 0.0105846 0 0 0 -9.28301e-18 -4.23485e-18 -0.236272 4.07224e-19 1.85773e-19 -0.000290828 -5.11402e-15 1.12102e-14 -1.83237e-29 0.001415 
165 1 0.0235415 -0.0395539 0.00973259 0 0 0 -0.00268464 -0.0358334 -0.0171594 1.50283e-09 2.00591e-08 -0.00029104 -10.1223 0.758365 -1.93318e-11 0.001415 
6551 1 -0.00658842 -0.0296093 0.00898187 0 0 0 5.22745e-18 -8.47247e-19 -0.236272 4.49304e-20 -7.28216e-21 -0.000290828 -1.34474e-16 -8.29697e-16 2.73324e-31 0.001415 
9787 1 -0.0202299 -0.023698 0.00979702 0 0 0 -9.07883e-18 -1.12892e-17 -0.236272 -8.00814e-20 -9.95787e-20 -0.000290828 -6.32404e-16 5.08581e-16 -3.2224e-29 0.001415 
1406 1 0.0148736 -0.0197 0.00937224 0 0 0 8.62013e-19 2.52184e-19 -0.236272 -8.10094e-25 -2.36994e-25 -0.000290828 -5.83721e-19 1.99527e-18 9.84943e-36 0.001415 
8588 1 -0.0403296 -0.0176897 0.00964686 0 0 0 9.17755e-18 -1.21202e-16 -0.236272 1.11831e-19 -1.47688e-18 -0.000290828 2.0013e-14 1.51541e-15 1.48617e-28 0.001415 
4389 1 -0.00210167 -0.0164576 0.0107813 0 0 0 2.27833e-17 -1.11066e-17 -0.236272 3.93295e-19 -1.91727e-19 -0.000290828 5.34143e-17 1.0957e-16 -4.09639e-29 0.001415 
8820 1 0.00980992 -0.0172644 0.00997465 0 0 0 0 0 -0.236272 0 0 -0.000290828 0 0 0 0.001415 
3529 1 0.0670132 -0.0166749 0.0102746 0 0 0 0 0 -0.236272 0 0 -0.000290828 0 0 0 0.001415 
4473 1 -0.0215554 -0.0144106 0.00975132 0 0 0 0 0 -0.236272 0 0 -0.000290828 0 0 0 0.001415 
5437 1 0.0244153 -0.0132218 0.00962829 0 0 0 -3.35931e-16 6.38319e-16 -0.236272 -1.52015e-17 2.88851e-17 -0.000290828 -8.54045e-15 -4.49462e-15 1.75401e-29 0.001415 
2099 1 -0.0146787 -0.0109948 0.00936101 0 0 0 -8.21771e-16 -1.49101e-16 -0.236272 -3.77042e-17 -6.84103e-18 -0.000290828 3.24216e-16 -1.78691e-15 1.12179e-28 0.001415 
4518 1 0.00403554 -0.00678852 0.0103332 0 0 0 -4.34235e-17 5.1839e-17 -0.236272 -5.17344e-19 6.17604e-19 -0.000290828 -1.74736e-14 -1.4637e-14 -4.96418e-28 0.001415 
9888 1 -0.0548111 -0.00420847 0.0103759 0 0 0 -7.20011e-17 8.99282e-17 -0.236272 -7.884e-18 9.84699e-18 -0.000290828 -1.7774e-15 -1.42308e-15 6.43128e-29 0.001415 
3528 1 0.0516347 -0.000942708 0.00906328 0 0 0 -2.26417e-17 -1.02975e-17 -0.236272 -1.65074e-19 -7.50755e-20 -0.000290828 -1.31965e-15 2.90161e-15 -1.36396e-29 0.001415 
2457 1 0.0227749 0.00368251 0.00938626 0 0 0 0 0 -0.236272 0 0 -0.000290828 0 0 0 0.001415 
1470 1 -0.0541433 0.00552442 0.0106234 0 0 0 5.16881e-17 4.98094e-17 -0.236272 6.21232e-19 5.98653e-19 -0.000290828 -1.88701e-14 1.95819e-14 -1.64567e-28 0.001415 
7478 1 0.0063252 0.00556124 0.0104696 0 0 0 -1.5644e-17 1.5864e-17 -0.236272 -3.91436e-19 3.96941e-19 -0.000290828 -5.10643e-16 -5.03562e-16 -1.38067e-28 0.001415 
5545 1 -0.0302182 0.00727945 0.0107638 0 0 0 0 0 -0.236272 0 0 -0.000290828 0 0 0 0.001415 
6445 1 -0.0495051 0.00927345 0.0101477 0 0 0 -7.26746e-19 8.85347e-19 -0.236272 2.37159e-19 -2.88915e-19 -0.000290828 1.27095e-15 1.04327e-15 1.12276e-29 0.001415 
4431 1 -0.0620527 0.012605 0.0101422 0 0 0 -6.87625e-17 1.46892e-17 -0.236272 -7.95544e-19 1.69946e-19 -0.000290828 -4.00539e-15 -1.87498e-14 3.57841e-29 0.001415 
4367 1 0.0426483 0.0117219 0.0106694 0 0 0 -4.3793e-17 3.95044e-17 -0.236272 -6.90853e-19 6.232e-19 -0.000290828 -4.57821e-15 -5.07522e-15 -2.39279e-28 0.001415 
5820 1 0.0722357 0.0116248 0.00993675 0 0 0 -1.04188e-16 1.00142e-16 -0.236272 -1.13761e-17 1.09343e-17 -0.000290828 -1.67348e-15 -1.74109e-15 -6.47915e-30 0.001415 
1280 1 -0.00826091 0.0224106 0.00926345 0 0 0 8.68972e-19 3.21893e-19 -0.236272 -8.16634e-25 -3.02505e-25 -0.000290828 -1.07238e-18 2.89496e-18 -1.24272e-33 0.001415 
2812 1 0.0619348 0.0249338 0.010622 0 0 0 1.21549e-17 6.16729e-17 -0.236272 2.02069e-19 1.02528e-18 -0.000290828 -7.38734e-15 1.45594e-15 -6.35717e-31 0.001415 
4219 1 0.00713294 0.0263879 0.0104315 0 0 0 7.85317e-18 -5.804e-17 -0.236272 1.29939e-19 -9.60331e-19 -0.000290828 1.4229e-14 1.92527e-15 2.03875e-28 0.001415 
6216 1 -0.023401 0.0310553 0.0105009 0 0 0 -3.57095e-18 -1.66034e-17 -0.236272 -2.85916e-20 -1.32938e-19 -0.000290828 -1.53108e-15 3.29297e-16 4.27861e-30 0.001415 
3968 1 -0.0261983 0.0364757 0.0100796 0 0 0 8.34399e-17 -2.61039e-16 -0.236272 6.51708e-18 -2.03885e-17 -0.000290828 -6.87207e-15 -2.19663e-15 1.41355e-29 0.001415 
7874 1 -0.0157052 0.0360712 0.0107149 0 0 0 8.56181e-18 1.01273e-17 -0.236272 3.02579e-19 3.57904e-19 -0.000290828 1.08784e-15 -9.19682e-16 -1.60215e-28 0.001415 
9745 1 -0.0323504 0.0411674 0.00938589 0 0 0 0 0 -0.236272 0 0 -0.000290828 0 0 0 0.001415 
485 1 0.0142511 0.04219 0.00912513 0 0 0 -3.21061e-18 2.72131e-18 -0.236272 3.01724e-24 -2.55741e-24 -0.000290828 -1.73283e-17 -2.04439e-17 1.33311e-32 0.001415 
4098 1 0.0474587 0.0419422 0.00933051 0 0 0 3.22785e-18 -1.09754e-18 -0.236272 4.46347e-20 -1.51768e-20 -0.000290828 -3.93468e-17 -1.15718e-16 5.44392e-31 0.001415 
4639 1 0.000319678 0.0462251 0.00971173 0 0 0 8.56796e-16 -4.61347e-16 -0.236272 3.41813e-17 -1.84051e-17 -0.000290828 4.86447e-15 9.0341e-15 -1.12002e-28 0.001415 
7349 1 0.0388392 0.0490157 0.00967973 0 0 0 -2.23872e-18 -3.78589e-17 -0.236272 -3.35781e-20 -5.67836e-19 -0.000290828 4.02303e-15 -2.37896e-16 -2.81051e-29 0.001415 
3318 1 0.0108764 -0.0748018 0.0117688 0 0 0 0 0 -0.236272 0 0 -0.000290828 0 0 0 0.001415 
6407 1 -0.0157638 -0.0542001 0.0113911 0 0 0 -2.03231e-17 5.92496e-18 -0.236272 -1.49078e-19 4.34621e-20 -0.000290828 -6.59141e-16 -2.2609e-15 8.80884e-30 0.001415 
4748 1 -0.0463698 -0.05198 0.0121413 0 0 0 -3.20253e-18 4.68247e-19 -0.236272 -4.19689e-19 6.13633e-20 -0.000290828 -4.65304e-15 -3.18241e-14 1.12806e-28 0.001415 
8903 1 0.00719176 -0.0530399 0.0119169 0 0 0 -7.49906e-18 6.33105e-17 -0.236272 -1.06698e-19 9.00796e-19 -0.000290828 -1.79564e-14 -2.12692e-15 1.35781e-28 0.001415 
8421 1 -0.0125515 -0.050364 0.0115943 0 0 0 8.16909e-18 -2.18131e-17 -0.236272 2.0738e-19 -5.53747e-19 -0.000290828 3.0605e-15 1.14617e-15 -5.4417e-28 0.001415 
5040 1 0.0412118 -0.051077 0.0111714 0 0 0 0 0 -0.236272 0 0 -0.000290828 0 0 0 0.001415 
8294 1 0.0417911 -0.0460756 0.0109395 0 0 0 0 0 -0.236272 0 0 -0.000290828 0 0 0 0.001415 
164 1 0.0235043 -0.0400506 0.012532 0 0 0 -0.00275486 -0.0367705 0.00403995 1.52761e-09 2.03898e-08 -0.000291052 8.21619 -0.615558 -1.82197e-11 0.001415 
7141 1 -0.0440609 -0.0300013 0.012132 0 0 0 0 0 -0.236272 0 0 -0.000290828 0 0 0 0.001415 
6550 1 -0.00716818 -0.0295154 0.0117503 0 0 0 -6.1519e-18 9.97079e-19 -0.236272 -4.49295e-20 7.28202e-21 -0.000290828 -1.34325e-16 -8.28774e-16 2.755e-31 0.001415 
9788 1 -0.0191042 -0.0222982 0.0119839 0 0 0 -3.41731e-17 -4.24931e-17 -0.236272 -6.85533e-19 -8.52439e-19 -0.000290828 1.52998e-14 -1.23042e-14 7.32578e-28 0.001415 
1405 1 0.0162037 -0.0193109 0.0118397 0 0 0 -9.17678e-17 -2.68468e-17 -0.236272 -1.30626e-18 -3.82149e-19 -0.000290828 5.2306e-15 -1.78792e-14 -4.76943e-28 0.001415 
8819 1 0.00974619 -0.0192248 0.0120147 0 0 0 3.19668e-18 9.83199e-17 -0.236272 4.002e-20 1.23089e-18 -0.000290828 -2.07337e-14 6.74115e-16 -1.62358e-28 0.001415 
8587 1 -0.0404076 -0.0166605 0.0122819 0 0 0 5.90322e-17 -7.79599e-16 -0.236272 2.96488e-19 -3.91553e-18 -0.000290828 -6.96334e-15 -5.27272e-16 -5.17593e-29 0.001415 
4472 1 -0.0211077 -0.0159411 0.0120893 0 0 0 -3.32662e-17 1.13713e-16 -0.236272 -3.86869e-19 1.32243e-18 -0.000290828 -2.72323e-14 -7.96667e-15 -4.05079e-28 0.001415 
5436 1 0.0238697 -0.0121851 0.0122045 0 0 0 4.78838e-18 -9.09863e-18 -0.236272 -3.1624e-20 6.00904e-20 -0.000290828 1.27888e-14 6.73043e-15 1.97364e-28 0.001415 
2098 1 -0.0163785 -0.0113032 0.0116026 0 0 0 -2.99607e-17 -5.43605e-18 -0.236272 -8.04612e-19 -1.45988e-19 -0.000290828 2.59972e-16 -1.43283e-15 -6.64741e-29 0.001415 
4519 1 0.0050482 -0.00799743 0.0126831 0 0 0 -5.24133e-16 6.25709e-16 -0.236272 -3.21087e-18 3.83314e-18 -0.000290828 1.78162e-15 1.49239e-15 1.0106e-27 0.001415 
3527 1 0.053278 -0.000195356 0.0112427 0 0 0 2.26417e-17 1.02975e-17 -0.236272 1.65074e-19 7.50755e-20 -0.000290828 -1.31965e-15 2.90161e-15 -1.36396e-29 0.001415 
4852 1 -0.0576017 0.00160357 0.0120037 0 0 0 3.30665e-17 5.42552e-17 -0.236272 4.65333e-19 7.63513e-19 -0.000290828 -1.115e-14 6.79549e-15 4.30995e-28 0.001415 
2456 1 0.0231999 0.00341526 0.0121714 0 0 0 -3.23968e-16 2.03735e-16 -0.236272 -1.80096e-18 1.13257e-18 -0.000290828 3.09072e-15 4.9147e-15 -1.66888e-28 0.001415 
6444 1 -0.0485008 0.00805 0.0124937 0 0 0 -5.05851e-17 6.16246e-17 -0.236272 -7.95273e-19 9.68828e-19 -0.000290828 -1.54795e-14 -1.27065e-14 -1.24376e-27 0.001415 
7897 1 0.0202104 0.0106666 0.0123465 0 0 0 1.7003e-17 8.10465e-17 -0.236272 2.24717e-19 1.07114e-18 -0.000290828 -2.48492e-14 5.21318e-15 6.09706e-29 0.001415 
4430 1 -0.0607358 0.0123237 0.0126313 0 0 0 -7.75012e-16 1.6556e-16 -0.236272 -4.27431e-18 9.13088e-19 -0.000290828 1.05572e-15 4.94198e-15 -7.68904e-29 0.001415 
4345 1 0.0473197 0.0133822 0.0111049 0 0 0 -1.37455e-17 -4.83127e-18 -0.236272 -5.96933e-19 -2.0981e-19 -0.000290828 1.44313e-15 -4.10586e-15 -1.59015e-28 0.001415 
5821 1 0.071151 0.0126674 0.0123337 0 0 0 -1.17531e-17 1.12967e-17 -0.236272 -1.5696e-19 1.50864e-19 -0.000290828 -1.52087e-15 -1.58232e-15 -2.23099e-29 0.001415 
9994 1 -0.0272948 0.0197145 0.0110689 0 0 0 -6.67209e-17 -6.37383e-17 -0.236272 -9.49149e-19 -9.0672e-19 -0.000290828 1.39691e-14 -1.46227e-14 -1.06591e-29 0.001415 
1279 1 -0.00741294 0.0227247 0.0119451 0 0 0 -6.96765e-17 -2.58103e-17 -0.236272 -9.05111e-19 -3.3528e-19 -0.000290828 6.70693e-16 -1.81058e-15 -1.00989e-28 0.001415 
3552 1 0.038076 0.0255707 0.0111082 0 0 0 -7.9216e-18 4.63421e-17 -0.236272 -1.37969e-19 8.07131e-19 -0.000290828 -1.12141e-14 -1.91691e-15 2.18948e-28 0.001415 
9955 1 0.0480973 0.0295036 0.0114036 0 0 0 0 0 -0.236272 0 0 -0.000290828 0 0 0 0.001415 
6215 1 -0.0229502 0.0331509 0.0123486 0 0 0 -7.51864e-18 -3.49584e-17 -0.236272 -1.33617e-19 -6.21262e-19 -0.000290828 2.4545e-14 -5.279e-15 -2.06113e-28 0.001415 
8775 1 0.0134757 0.0326995 0.0109869 0 0 0 -8.55773e-18 1.44023e-17 -0.236272 -1.57531e-19 2.6512e-19 -0.000290828 2.31564e-16 1.37593e-16 1.29012e-29 0.001415 
3967 1 -0.0257836 0.0351781 0.0125601 0 0 0 -2.80201e-16 8.766e-16 -0.236272 -1.61813e-18 5.06227e-18 -0.000290828 1.07749e-14 3.44415e-15 -5.93657e-28 0.001415 
4099 1 0.0465216 0.0422608 0.0119818 0 0 0 1.14407e-17 -3.89008e-18 -0.236272 3.65295e-19 -1.24208e-19 -0.000290828 -2.12396e-16 -6.24653e-16 -1.4164e-28 0.001415 
9746 1 -0.0326219 0.0429159 0.0115945 0 0 0 1.12174e-17 -7.22442e-17 -0.236272 1.55111e-19 -9.98972e-19 -0.000290828 1.9686e-14 3.05666e-15 -2.12974e-28 0.001415 
486 1 0.0131757 0.0431015 0.011579 0 0 0 8.23435e-17 -6.97942e-17 -0.236272 1.03708e-18 -8.79024e-19 -0.000290828 1.7567e-14 2.07256e-14 -2.12219e-28 0.001415 
4638 1 0.00148191 0.0455993 0.012215 0 0 0 1.51539e-19 -8.15973e-20 -0.236272 1.5725e-19 -8.46723e-20 -0.000290828 -2.99321e-15 -5.55887e-15 5.09345e-28 0.001415 
7348 1 0.0388741 0.0496065 0.0124472 0 0 0 -3.40621e-17 -5.7602e-16 -0.236272 -1.97162e-19 -3.33419e-18 -0.000290828 5.61643e-15 -3.32119e-16 9.22739e-30 0.001415 
8316 1 0.0241447 0.055508 0.0121466 0 0 0 0 0 -0.236272 0 0 -0.000290828 0 0 0 0.001415 
4831 1 0.0293284 0.0560787 0.0126159 0 0 0 8.81518e-16 -4.90029e-16 -0.236272 5.47304e-18 -3.04242e-18 -0.000290828 -1.67071e-14 -3.00545e-14 -9.96059e-28 0.001415 
6909 1 0.00964204 0.0590336 0.01265 0 0 0 1.74304e-16 -1.05023e-16 -0.236272 1.81129e-18 -1.09135e-18 -0.000290828 2.86229e-14 4.75048e-14 -1.01486e-27 0.001415 
6048 1 -0.0014895 0.0671831 0.0109942 0 0 0 -7.82851e-17 -4.70432e-18 -0.236272 -1.18738e-18 -7.13526e-20 -0.000290828 8.91969e-16 -1.48433e-14 -8.26329e-29 0.001415 
3317 1 0.00879117 -0.0741345 0.013562 0 0 0 1.22008e-15 -3.90442e-16 -0.236272 2.61658e-18 -8.37342e-19 -0.000290828 -1.63519e-14 -5.10976e-14 -1.5696e-27 0.001415 
4537 1 0.0348065 -0.0668743 0.0135399 0 0 0 4.56672e-16 -8.89337e-16 -0.236272 -4.29166e-22 8.35772e-22 -0.000290828 9.44216e-15 4.84851e-15 -4.63262e-29 0.001415 
5120 1 -0.00732864 -0.0640527 0.0132961 0 0 0 -5.42201e-16 -1.90853e-16 -0.236272 5.72237e-19 2.01426e-19 -0.000290828 2.43747e-15 -6.9247e-15 2.58873e-28 0.001415 
8902 1 0.00739974 -0.0547957 0.0141266 0 0 0 -1.72562e-16 1.45685e-15 -0.236272 1.06867e-19 -9.02224e-19 -0.000290828 1.90464e-14 2.25602e-15 6.24159e-30 0.001415 
4749 1 -0.0443437 -0.0522762 0.0140947 0 0 0 -1.12085e-15 1.63881e-16 -0.236272 8.76313e-19 -1.28127e-19 -0.000290828 4.41731e-15 3.02118e-14 -1.03583e-28 0.001415 
6408 1 -0.0176936 -0.0536375 0.0133832 0 0 0 2.23905e-15 -6.52771e-16 -0.236272 2.50948e-17 -7.3161e-18 -0.000290828 -1.88112e-14 -6.45237e-14 -1.71526e-27 0.001415 
9217 1 -0.0337766 -0.0507822 0.0128855 0 0 0 -3.25148e-16 8.41636e-16 -0.236272 -1.73927e-18 4.50205e-18 -0.000290828 3.42178e-15 1.32193e-15 1.08583e-27 0.001415 
5039 1 0.0393096 -0.0515993 0.0132007 0 0 0 1.48903e-15 4.08858e-16 -0.236272 1.16172e-17 3.18985e-18 -0.000290828 9.80509e-15 -3.57094e-14 1.96849e-27 0.001415 
8420 1 -0.0130316 -0.0490822 0.0140713 0 0 0 4.72917e-16 -1.26278e-15 -0.236272 -2.07832e-19 5.54955e-19 -0.000290828 -1.24187e-14 -4.65083e-15 1.61295e-27 0.001415 
8293 1 0.0410995 -0.0444363 0.0131403 0 0 0 6.19586e-16 -1.46853e-15 -0.236272 3.25009e-18 -7.70332e-18 -0.000290828 -7.07722e-14 -2.98593e-14 1.91976e-28 0.001415 
8782 1 0.00995582 -0.0396456 0.0130786 0 0 0 1.07622e-15 4.90963e-16 -0.236272 -6.89772e-19 -3.1467e-19 -0.000290828 1.29141e-14 -2.83083e-14 -1.1129e-27 0.001415 
1765 1 -0.00582286 -0.0341936 0.0138334 0 0 0 1.27234e-15 -3.98163e-16 -0.236272 -1.1957e-21 3.74181e-22 -0.000290828 -1.59992e-14 -5.11257e-14 4.64351e-28 0.001415 
7142 1 -0.0430179 -0.0310366 0.0145505 0 0 0 -9.67357e-16 9.60198e-16 -0.236272 9.09093e-22 -9.02365e-22 -0.000290828 2.60951e-14 2.62897e-14 -1.61905e-28 0.001415 
6549 1 -0.00774795 -0.0294214 0.0145186 0 0 0 6.5827e-16 -1.0669e-16 -0.236272 -6.18623e-22 1.00264e-22 -0.000290828 9.09315e-16 5.61041e-15 9.47497e-29 0.001415 
2898 1 -0.0015393 -0.0260351 0.0141056 0 0 0 8.47866e-16 -1.67377e-16 -0.236272 -7.96799e-22 1.57296e-22 -0.000290828 -5.03202e-16 -2.54902e-15 -8.95358e-29 0.001415 
1113 1 0.057839 -0.0250229 0.0129622 0 0 0 1.49638e-15 7.67711e-16 -0.236272 1.2146e-17 6.23147e-18 -0.000290828 1.25081e-14 -2.43801e-14 4.48152e-28 0.001415 
2604 1 -0.0264828 -0.0239558 0.0138301 0 0 0 1.58711e-15 -6.91018e-17 -0.236272 1.41357e-17 -6.15461e-19 -0.000290828 -2.84458e-15 -6.53334e-14 -1.98037e-28 0.001415 
7959 1 -0.0480224 -0.0227988 0.0145121 0 0 0 -1.34109e-15 8.36476e-16 -0.236272 1.26032e-21 -7.86095e-22 -0.000290828 2.46531e-14 3.95255e-14 2.38032e-27 0.001415 
8818 1 0.00968245 -0.0211851 0.0140548 0 0 0 4.45591e-17 1.3705e-15 -0.236272 -4.00648e-20 -1.23227e-18 -0.000290828 1.41864e-14 -4.61245e-16 -4.65882e-29 0.001415 
9789 1 -0.0179785 -0.0208985 0.0141708 0 0 0 -1.00005e-15 -1.24353e-15 -0.236272 7.66595e-19 9.53237e-19 -0.000290828 -2.69748e-14 2.16932e-14 -3.23115e-28 0.001415 
4471 1 -0.0206599 -0.0174716 0.0144272 0 0 0 -3.34196e-16 1.14238e-15 -0.236272 3.87215e-19 -1.32361e-18 -0.000290828 7.60433e-15 2.2246e-15 -9.76122e-29 0.001415 
1404 1 0.0175339 -0.0189217 0.0143071 0 0 0 -1.18965e-15 -3.48034e-16 -0.236272 1.30746e-18 3.82501e-19 -0.000290828 -2.75576e-15 9.41972e-15 7.5005e-28 0.001415 
3530 1 0.0663652 -0.0174708 0.012912 0 0 0 8.12899e-16 9.98401e-16 -0.236272 2.05884e-18 2.52866e-18 -0.000290828 6.84423e-15 -5.57258e-15 -6.31827e-28 0.001415 
4388 1 -0.00265555 -0.0161876 0.0135434 0 0 0 5.61837e-16 -2.73889e-16 -0.236272 -3.93844e-19 1.91995e-19 -0.000290828 2.21797e-15 4.54979e-15 1.24154e-29 0.001415 
2097 1 -0.0180782 -0.0116116 0.0138442 0 0 0 1.47479e-15 2.67585e-16 -0.236272 -1.38596e-21 -2.51468e-22 -0.000290828 8.10414e-15 -4.46659e-14 -1.64095e-27 0.001415 
9887 1 -0.0551901 -0.00373509 0.0131401 0 0 0 3.90258e-16 -4.87426e-16 -0.236272 -3.77423e-19 4.71395e-19 -0.000290828 6.55086e-15 5.24495e-15 3.89633e-29 0.001415 
4853 1 -0.0586257 -7.65915e-05 0.0140378 0 0 0 7.55147e-16 1.23904e-15 -0.236272 -4.66074e-19 -7.64729e-19 -0.000290828 1.20174e-14 -7.32415e-15 -1.64671e-27 0.001415 
9743 1 -0.0492029 -0.00049722 0.014543 0 0 0 6.58366e-16 7.49933e-16 -0.236272 -3.0233e-19 -3.44379e-19 -0.000290828 2.52013e-14 -2.21242e-14 1.15588e-27 0.001415 
9744 1 -0.0476714 0.00124731 0.0129243 0 0 0 2.006e-17 2.28501e-17 -0.236272 3.01693e-19 3.43653e-19 -0.000290828 -1.01176e-14 8.88224e-15 1.49995e-28 0.001415 
3403 1 0.0399954 0.00144601 0.0130593 0 0 0 -1.31448e-15 6.22039e-17 -0.236272 -1.02029e-17 4.82823e-19 -0.000290828 1.75241e-15 3.70316e-14 -2.97868e-28 0.001415 
3526 1 0.0549212 0.000551996 0.0134222 0 0 0 -1.47336e-15 -6.70083e-16 -0.236272 1.38462e-21 6.29724e-22 -0.000290828 -2.19841e-14 4.8338e-14 -1.36604e-27 0.001415 
3843 1 -0.0432547 0.00201405 0.0136448 0 0 0 1.21466e-15 8.27624e-16 -0.236272 -1.1415e-21 -7.77776e-22 -0.000290828 1.6988e-14 -2.49323e-14 2.01328e-27 0.001415 
6238 1 0.0476834 0.00358837 0.0131803 0 0 0 1.70544e-15 -1.09731e-15 -0.236272 1.1462e-17 -7.37485e-18 -0.000290828 -3.38041e-14 -5.25385e-14 9.75103e-28 0.001415 
1469 1 -0.0554428 0.00427207 0.0128032 0 0 0 6.79286e-16 6.54597e-16 -0.236272 3.85342e-18 3.71336e-18 -0.000290828 1.3876e-14 -1.43993e-14 -4.95019e-29 0.001415 
7479 1 0.00708078 0.00479504 0.0130871 0 0 0 -7.41945e-16 7.52378e-16 -0.236272 3.92148e-19 -3.97663e-19 -0.000290828 3.05117e-15 3.00886e-15 6.22034e-28 0.001415 
5546 1 -0.0286421 0.00814112 0.0129506 0 0 0 -1.20212e-15 -6.57215e-16 -0.236272 -7.62816e-18 -4.17043e-18 -0.000290828 -2.24986e-14 4.11524e-14 -3.55666e-27 0.001415 
7898 1 0.0197791 0.00861083 0.014243 0 0 0 2.87922e-16 1.37241e-15 -0.236272 -2.25003e-19 -1.0725e-18 -0.000290828 2.83959e-14 -5.95725e-15 -4.0091e-28 0.001415 
4366 1 0.0434972 0.010956 0.0132581 0 0 0 -8.2391e-16 7.43226e-16 -0.236272 6.91669e-19 -6.23935e-19 -0.000290828 4.81358e-15 5.33613e-15 -2.39158e-28 0.001415 
1176 1 0.023371 0.01534 0.0142445 0 0 0 1.79914e-17 1.52449e-15 -0.236272 -1.69078e-23 -1.43267e-21 -0.000290828 2.40549e-14 -2.83887e-16 -5.20601e-30 0.001415 
4344 1 0.0486622 0.0138541 0.0135511 0 0 0 -1.31586e-15 -4.625e-16 -0.236272 7.1544e-19 2.51463e-19 -0.000290828 -4.98109e-15 1.41717e-14 1.10124e-27 0.001415 
5629 1 -0.00809486 0.0186934 0.0134244 0 0 0 1.48974e-15 2.60609e-17 -0.236272 1.26679e-17 2.21606e-19 -0.000290828 1.18714e-15 -6.78616e-14 2.53604e-28 0.001415 
9993 1 -0.0262716 0.020692 0.0135198 0 0 0 -8.26337e-16 -7.89397e-16 -0.236272 9.49989e-19 9.07521e-19 -0.000290828 -1.56941e-14 1.64285e-14 1.1782e-27 0.001415 
3553 1 0.038325 0.0241144 0.013522 0 0 0 -1.97698e-16 1.15655e-15 -0.236272 1.38162e-19 -8.08262e-19 -0.000290828 1.88353e-14 3.21965e-15 4.8942e-28 0.001415 
2811 1 0.0616855 0.0236687 0.0131411 0 0 0 2.48711e-16 1.26194e-15 -0.236272 -2.22998e-19 -1.13147e-18 -0.000290828 4.57519e-15 -9.01707e-16 -3.81545e-28 0.001415 
4218 1 0.00694369 0.0277865 0.0128844 0 0 0 1.53014e-16 -1.13087e-15 -0.236272 5.19552e-19 -3.83982e-18 -0.000290828 -3.1801e-14 -4.30287e-15 9.88544e-29 0.001415 
9956 1 0.047731 0.0274693 0.0133366 0 0 0 2.94343e-16 1.63472e-15 -0.236272 2.44399e-18 1.35734e-17 -0.000290828 3.09532e-14 -5.57334e-15 -8.77206e-29 0.001415 
6007 1 0.0347873 0.0296881 0.0131065 0 0 0 3.83137e-16 4.29296e-16 -0.236272 -3.60061e-22 -4.03439e-22 -0.000290828 -2.63605e-15 2.35262e-15 1.33571e-29 0.001415 
8774 1 0.0137081 0.0323084 0.0137801 0 0 0 -2.44731e-16 4.11873e-16 -0.236272 1.71382e-19 -2.8843e-19 -0.000290828 -5.19073e-15 -3.08428e-15 -2.75616e-29 0.001415 
6214 1 -0.0224995 0.0352466 0.0141964 0 0 0 -2.85198e-16 -1.32604e-15 -0.236272 1.62487e-19 7.55495e-19 -0.000290828 -3.42366e-14 7.36341e-15 1.18359e-27 0.001415 
7873 1 -0.0162209 0.0354611 0.0134298 0 0 0 5.37735e-16 6.36056e-16 -0.236272 -3.51402e-19 -4.15654e-19 -0.000290828 -7.21904e-15 6.10313e-15 6.24564e-28 0.001415 
6847 1 -0.0500743 0.0395872 0.0135865 0 0 0 -1.56449e-15 6.74797e-16 -0.236272 -1.31756e-17 5.68292e-18 -0.000290828 3.32354e-14 7.70546e-14 -3.06097e-27 0.001415 
487 1 0.0121003 0.044013 0.0140329 0 0 0 8.54077e-16 -7.23915e-16 -0.236272 -1.03796e-18 8.7977e-19 -0.000290828 -8.04232e-15 -9.48835e-15 2.91786e-28 0.001415 
9747 1 -0.0328934 0.0446643 0.0138032 0 0 0 2.25177e-16 -1.45022e-15 -0.236272 -1.55333e-19 1.0004e-18 -0.000290828 -2.46978e-14 -3.83485e-15 2.14189e-28 0.001415 
8988 1 0.0105277 0.0515901 0.0142904 0 0 0 5.22488e-16 -7.39181e-16 -0.236272 -4.91019e-22 6.9466e-22 -0.000290828 -3.212e-14 -2.2704e-14 -3.57927e-29 0.001415 
8315 1 0.0261215 0.0546907 0.0139995 0 0 0 -1.44452e-15 5.97204e-16 -0.236272 1.35752e-21 -5.61235e-22 -0.000290828 1.11458e-14 2.69595e-14 -7.78342e-28 0.001415 
6908 1 0.00786074 0.0601069 0.0145694 0 0 0 1.09396e-15 -6.59143e-16 -0.236272 -1.81248e-18 1.09207e-18 -0.000290828 -2.30507e-15 -3.82568e-15 1.62238e-27 0.001415 
6047 1 -2.16486e-05 0.0672713 0.0134121 0 0 0 -1.39567e-15 -8.38688e-17 -0.236272 1.18877e-18 7.14358e-20 -0.000290828 -9.50069e-16 1.58102e-14 1.38872e-28 0.001415 
7455 1 0.00864732 0.0657086 0.0135585 0 0 0 -6.20894e-17 1.47239e-15 -0.236272 5.83497e-23 -1.3837e-21 -0.000290828 1.78869e-14 7.54278e-16 -6.19195e-29 0.001415 
8757 1 0.00829498 0.0765507 0.013005 0 0 0 0 0 -0.236272 0 0 -0.000290828 0 0 0 0.001415 