ITEM: TIMESTEP
115000
ITEM: NUMBER OF ATOMS
10248
ITEM: BOX BOUNDS ff ff ff
-0.2 0.2
-0.2 0.2
-0.01 0.5
ITEM: ATOMS id type x y z ix iy iz vx vy vz fx fy fz omegax omegay omegaz radius 
5124 1 -0.00943529 -0.0647942 0.00251976 0 0 0 -1.07557e-17 -3.78597e-18 -0.222548 9.82237e-24 3.45744e-24 -0.000290846 2.43547e-16 -6.91901e-16 1.49156e-32 0.001415 
168 1 0.0236553 -0.0380352 0.00145526 0 0 0 1.3647e-17 1.82154e-16 -0.222548 4.42611e-19 5.90777e-18 -0.000290846 1.62292e-15 -1.21589e-16 -2.01388e-30 0.001415 
9891 1 -0.0536741 -0.00562861 0.00240424 0 0 0 7.12632e-18 -8.90066e-18 -0.222548 -6.50793e-24 8.1283e-24 -0.000290846 6.62955e-16 5.30796e-16 -2.89632e-31 0.001415 
8778 1 0.0127785 0.033873 0.00292854 0 0 0 -4.29738e-18 7.23234e-18 -0.222548 3.92448e-24 -6.60475e-24 -0.000290846 -4.43936e-16 -2.63783e-16 3.68632e-31 0.001415 
167 1 0.0236183 -0.0385289 0.00424161 0 0 0 -1.23968e-17 -1.65467e-16 -0.222548 -4.2096e-19 -5.61878e-18 -0.000290846 1.78547e-15 -1.33768e-16 6.87295e-30 0.001415 
5439 1 0.0255064 -0.015295 0.00479711 0 0 0 6.69747e-19 -1.27262e-18 -0.222548 -6.11629e-25 1.16219e-24 -0.000290846 -5.23907e-18 -2.75719e-18 2.22098e-33 0.001415 
4096 1 0.0493328 0.0413049 0.00434912 0 0 0 1.05118e-17 -3.57425e-18 -0.222548 1.27644e-19 -4.34019e-20 -0.000290846 -2.95623e-16 -8.69425e-16 1.64958e-30 0.001415 
5123 1 -0.00890863 -0.0646088 0.00529414 0 0 0 9.81932e-18 3.45637e-18 -0.222548 -8.96724e-24 -3.15644e-24 -0.000290846 2.42098e-16 -6.87783e-16 1.77199e-32 0.001415 
8779 1 0.0136066 -0.0379801 0.0059179 0 0 0 1.14881e-19 5.24079e-20 -0.222548 -1.04912e-25 -4.78602e-26 -0.000290846 -4.07816e-19 8.93952e-19 -5.00762e-34 0.001415 
6552 1 -0.00600865 -0.0297033 0.00653466 0 0 0 7.94154e-19 -1.28714e-19 -0.222548 -7.25241e-25 1.17545e-25 -0.000290846 -4.68477e-19 -2.89047e-18 -2.04095e-34 0.001415 
9890 1 -0.0540531 -0.00515523 0.0051685 0 0 0 -6.2143e-18 7.76156e-18 -0.222548 5.67505e-24 -7.08805e-24 -0.000290846 6.56948e-16 5.25986e-16 -2.89952e-31 0.001415 
4516 1 0.00201022 -0.00437069 0.00595459 0 0 0 -1.0723e-18 1.28012e-18 -0.222548 9.79255e-25 -1.16903e-24 -0.000290846 4.69453e-18 3.93243e-18 -1.24815e-32 0.001415 
5818 1 0.0744051 0.00953964 0.00546404 0 0 0 2.36862e-19 -2.27664e-19 -0.222548 -2.16308e-25 2.07908e-25 -0.000290846 -2.53184e-19 -2.63413e-19 -1.71783e-34 0.001415 
6447 1 -0.0515136 0.0117203 0.00577697 0 0 0 -1.10174e-18 1.34218e-18 -0.222548 1.00614e-24 -1.22571e-24 -0.000290846 4.4224e-18 3.63017e-18 -1.38192e-32 0.001415 
4347 1 0.0446345 0.0124385 0.00653375 0 0 0 -7.28282e-19 -2.55977e-19 -0.222548 6.65085e-25 2.33764e-25 -0.000290846 -2.68504e-19 7.63923e-19 -3.25086e-35 0.001415 
9996 1 -0.0293411 0.0177597 0.00648841 0 0 0 -1.75256e-18 -1.67422e-18 -0.222548 1.60048e-24 1.52894e-24 -0.000290846 -7.58321e-18 7.93806e-18 1.07766e-32 0.001415 
4221 1 0.00751144 0.0235905 0.00584684 0 0 0 3.08437e-20 -2.27955e-19 -0.222548 -2.81672e-26 2.08174e-25 -0.000290846 4.14632e-19 5.61022e-20 1.08549e-34 0.001415 
3550 1 0.0375782 0.0284832 0.0066019 0 0 0 -1.07713e-18 6.30128e-18 -0.222548 9.83657e-25 -5.75449e-24 -0.000290846 3.71264e-17 6.3463e-18 -1.16599e-32 0.001415 
2814 1 0.0624335 0.0274639 0.00590476 0 0 0 1.42415e-19 7.22602e-19 -0.222548 -1.30057e-25 -6.59898e-25 -0.000290846 1.17359e-18 -2.31299e-19 1.95768e-33 0.001415 
8777 1 0.0130109 0.0334818 0.00572173 0 0 0 4.0976e-18 -6.89611e-18 -0.222548 -3.74203e-24 6.2977e-24 -0.000290846 -4.43163e-16 -2.63323e-16 3.68511e-31 0.001415 
4641 1 -0.00200478 0.0474767 0.00502631 0 0 0 -2.10642e-18 1.13421e-18 -0.222548 1.92363e-24 -1.03579e-24 -0.000290846 5.34861e-18 9.93324e-18 -2.46534e-33 0.001415 
5122 1 -0.00838197 -0.0644234 0.00806852 0 0 0 4.06841e-19 1.43207e-19 -0.222548 -1.0163e-20 -3.57735e-21 -0.000290846 9.59731e-17 -2.72653e-16 -2.52417e-30 0.001415 
8780 1 0.0123897 -0.0385353 0.00841185 0 0 0 2.31459e-17 1.0559e-17 -0.222548 2.8619e-19 1.30558e-19 -0.000290846 -1.98543e-15 4.35216e-15 1.23747e-30 0.001415 
166 1 0.0235813 -0.0390227 0.00702796 0 0 0 -1.19393e-18 -1.59361e-17 -0.222548 -2.16516e-20 -2.88995e-19 -0.000290846 1.63818e-16 -1.22733e-17 8.88673e-30 0.001415 
1407 1 0.0135434 -0.0200891 0.007226 0 0 0 -6.80094e-19 -1.98963e-19 -0.222548 6.21079e-25 1.81698e-25 -0.000290846 -4.80059e-19 1.64093e-18 -6.54868e-34 0.001415 
8589 1 -0.0402517 -0.0187189 0.00733296 0 0 0 5.78188e-20 -7.63576e-19 -0.222548 -5.28016e-26 6.97316e-25 -0.000290846 3.63274e-18 2.75075e-19 -1.53628e-32 0.001415 
5438 1 0.0249608 -0.0142584 0.00737329 0 0 0 9.01894e-17 -1.71373e-16 -0.222548 2.02674e-18 -3.85112e-18 -0.000290846 -1.83457e-15 -9.65485e-16 -6.44411e-30 0.001415 
2100 1 -0.012979 -0.0106864 0.00744061 0 0 0 2.0438e-16 3.70825e-17 -0.222548 4.32627e-18 7.84955e-19 -0.000290846 -4.02112e-16 2.21624e-15 3.38228e-31 0.001415 
9889 1 -0.0544321 -0.00468185 0.00793277 0 0 0 -9.12016e-19 1.13909e-18 -0.222548 8.32875e-25 -1.04025e-24 -0.000290846 -6.00714e-18 -4.80962e-18 -3.20201e-34 0.001415 
4517 1 0.00302288 -0.0055796 0.00830447 0 0 0 1.0723e-18 -1.28012e-18 -0.222548 -9.79255e-25 1.16903e-24 -0.000290846 4.69453e-18 3.93243e-18 -1.24815e-32 0.001415 
7477 1 0.00556963 0.00632744 0.00817337 0 0 0 0 0 -0.222548 0 0 -0.000290846 0 0 0 0.001415 
6446 1 -0.0505093 0.0104969 0.00812293 0 0 0 -2.19046e-18 2.6685e-18 -0.222548 -4.16154e-20 5.06973e-20 -0.000290846 5.1829e-17 4.25443e-17 8.32135e-31 0.001415 
5819 1 0.0733204 0.0105822 0.00786098 0 0 0 -2.36862e-19 2.27664e-19 -0.222548 2.16308e-25 -2.07908e-25 -0.000290846 -2.53184e-19 -2.63413e-19 -1.71783e-34 0.001415 
4368 1 0.0417993 0.0124877 0.00840178 0 0 0 0 0 -0.222548 0 0 -0.000290846 0 0 0 0.001415 
1281 1 -0.00910888 0.0220965 0.00690299 0 0 0 -7.20039e-19 -2.66724e-19 -0.222548 6.57557e-25 2.43579e-25 -0.000290846 -8.97982e-19 2.42416e-18 -9.39119e-34 0.001415 
4220 1 0.00732219 0.0249892 0.00829975 0 0 0 1.31267e-18 -9.70147e-18 -0.222548 1.77138e-20 -1.30916e-19 -0.000290846 -2.98849e-16 -4.04361e-17 8.39931e-31 0.001415 
2813 1 0.0621842 0.0261988 0.00842395 0 0 0 1.15382e-18 5.85439e-18 -0.222548 1.75469e-20 8.90313e-20 -0.000290846 -1.0894e-17 2.14706e-18 2.87042e-32 0.001415 
8776 1 0.0132433 0.0330907 0.00851492 0 0 0 -5.88685e-19 9.90734e-19 -0.222548 -1.074e-20 1.8075e-20 -0.000290846 9.0444e-19 5.3741e-19 5.47787e-31 0.001415 
3969 1 -0.0266131 0.0377733 0.00792023 0 0 0 -1.30156e-17 4.07189e-17 -0.222548 -1.5827e-19 4.95144e-19 -0.000290846 -4.24196e-15 -1.35592e-15 1.49026e-30 0.001415 
7875 1 -0.0151895 0.0366812 0.00832116 0 0 0 3.4829e-18 4.11973e-18 -0.222548 4.24717e-20 5.02373e-20 -0.000290846 3.68742e-16 -3.11742e-16 3.64841e-32 0.001415 
484 1 0.0153265 0.0412785 0.00699241 0 0 0 2.85379e-18 -2.41887e-18 -0.222548 -2.60615e-24 2.20897e-24 -0.000290846 -1.26412e-17 -1.49141e-17 1.11461e-32 0.001415 
4097 1 0.0483957 0.0416236 0.0070004 0 0 0 -9.05227e-18 3.07797e-18 -0.222548 -1.27646e-19 4.34023e-20 -0.000290846 -2.97144e-16 -8.73897e-16 1.64812e-30 0.001415 
4640 1 -0.000842548 0.0468509 0.00752961 0 0 0 -2.3712e-16 1.27679e-16 -0.222548 -5.85735e-18 3.15393e-18 -0.000290846 -4.3417e-16 -8.06324e-16 2.18298e-30 0.001415 
7350 1 0.0388042 0.0484249 0.00723347 0 0 0 -4.44029e-21 -7.50893e-20 -0.222548 4.05498e-27 6.85734e-26 -0.000290846 2.59554e-19 -1.53483e-20 3.67257e-36 0.001415 
6406 1 -0.013834 -0.0547628 0.00972025 0 0 0 1.30441e-17 -3.80286e-18 -0.222548 1.59506e-19 -4.65023e-20 -0.000290846 -2.49592e-16 -8.5612e-16 -3.62332e-31 0.001415 
4747 1 -0.048396 -0.0516837 0.010509 0 0 0 -3.8881e-17 5.68485e-18 -0.222548 -4.7907e-19 7.00455e-20 -0.000290846 -1.69394e-16 -1.15856e-15 -1.11756e-30 0.001415 
8904 1 0.00698378 -0.051284 0.0100284 0 0 0 0 0 -0.222548 0 0 -0.000290846 0 0 0 0.001415 
9219 1 -0.0350531 -0.0474779 0.00879213 0 0 0 0 0 -0.222548 0 0 -0.000290846 0 0 0 0.001415 
8295 1 0.0424827 -0.0477148 0.00905985 0 0 0 0 0 -0.222548 0 0 -0.000290846 0 0 0 0.001415 
165 1 0.0235443 -0.0395164 0.00981431 0 0 0 3.42865e-19 4.57641e-18 -0.222548 1.04369e-20 1.39307e-19 -0.000290846 -2.07051e-16 1.55123e-17 1.8953e-29 0.001415 
6551 1 -0.00658842 -0.0296093 0.00930304 0 0 0 3.16012e-18 -5.12182e-19 -0.222548 4.82772e-20 -7.82459e-21 -0.000290846 -4.73421e-17 -2.92097e-16 4.64581e-32 0.001415 
9787 1 -0.0202299 -0.023698 0.0101182 0 0 0 -5.55567e-18 -6.9083e-18 -0.222548 -7.08627e-20 -8.81156e-20 -0.000290846 -3.75526e-16 3.01999e-16 -4.81415e-30 0.001415 
1406 1 0.0148736 -0.0197 0.00969341 0 0 0 6.80094e-19 1.98963e-19 -0.222548 -6.21079e-25 -1.81698e-25 -0.000290846 -4.80059e-19 1.64093e-18 -6.54868e-34 0.001415 
8588 1 -0.0403296 -0.0176897 0.00996803 0 0 0 4.36129e-18 -5.75967e-17 -0.222548 7.42295e-20 -9.803e-19 -0.000290846 6.68868e-15 5.06475e-16 5.83412e-29 0.001415 
8820 1 0.00980992 -0.0172644 0.0102958 0 0 0 0 0 -0.222548 0 0 -0.000290846 0 0 0 0.001415 
3529 1 0.0670132 -0.0166749 0.0105958 0 0 0 0 0 -0.222548 0 0 -0.000290846 0 0 0 0.001415 
4473 1 -0.0215554 -0.0144106 0.0100725 0 0 0 0 0 -0.222548 0 0 -0.000290846 0 0 0 0.001415 
5437 1 0.0244153 -0.0132218 0.00994947 0 0 0 -7.94639e-17 1.50993e-16 -0.222548 -1.82283e-18 3.46364e-18 -0.000290846 7.04195e-16 3.706e-16 2.39097e-30 0.001415 
2099 1 -0.0146787 -0.0109948 0.00968219 0 0 0 -1.97853e-16 -3.58984e-17 -0.222548 -4.14723e-18 -7.5247e-19 -0.000290846 -3.37822e-16 1.8619e-15 -3.00457e-31 0.001415 
3528 1 0.0516347 -0.000942708 0.00938446 0 0 0 -1.45621e-17 -6.62282e-18 -0.222548 -1.77468e-19 -8.07124e-20 -0.000290846 -5.00067e-16 1.09953e-15 -5.52705e-31 0.001415 
2457 1 0.0227749 0.00368251 0.00970744 0 0 0 0 0 -0.222548 0 0 -0.000290846 0 0 0 0.001415 
6445 1 -0.0495051 0.00927345 0.0104689 0 0 0 -2.0069e-19 2.44487e-19 -0.222548 -7.56446e-21 9.21528e-21 -0.000290846 -2.06624e-17 -1.69609e-17 2.86739e-30 0.001415 
4431 1 -0.0620527 0.012605 0.0104634 0 0 0 -3.48994e-17 7.4553e-18 -0.222548 -6.3854e-19 1.36406e-19 -0.000290846 -1.41725e-15 -6.63436e-15 -3.33933e-29 0.001415 
4346 1 0.0459771 0.0129104 0.00897992 0 0 0 -8.37686e-18 -2.9443e-18 -0.222548 -1.11212e-19 -3.90888e-20 -0.000290846 -2.38039e-16 6.77248e-16 -1.50085e-30 0.001415 
5820 1 0.0722357 0.0116248 0.0102579 0 0 0 7.32842e-18 -7.04384e-18 -0.222548 8.9484e-20 -8.60091e-20 -0.000290846 -5.56458e-16 -5.7894e-16 -4.30983e-30 0.001415 
9995 1 -0.0283179 0.0187371 0.00893926 0 0 0 1.75256e-18 1.67422e-18 -0.222548 -1.60048e-24 -1.52894e-24 -0.000290846 -7.58321e-18 7.93806e-18 1.07766e-32 0.001415 
1280 1 -0.00826091 0.0224106 0.00958463 0 0 0 7.20039e-19 2.66724e-19 -0.222548 -6.57557e-25 -2.43579e-25 -0.000290846 -8.97982e-19 2.42416e-18 -9.39119e-34 0.001415 
3551 1 0.0378271 0.027027 0.00901565 0 0 0 1.07713e-18 -6.30128e-18 -0.222548 -9.83657e-25 5.75449e-24 -0.000290846 3.71264e-17 6.3463e-18 -1.16599e-32 0.001415 
3968 1 -0.0261983 0.0364757 0.0104008 0 0 0 1.30156e-17 -4.07189e-17 -0.222548 1.5827e-19 -4.95144e-19 -0.000290846 -4.24196e-15 -1.35592e-15 1.49026e-30 0.001415 
9745 1 -0.0323504 0.0411674 0.00970707 0 0 0 0 0 -0.222548 0 0 -0.000290846 0 0 0 0.001415 
485 1 0.0142511 0.04219 0.0094463 0 0 0 -2.85379e-18 2.41887e-18 -0.222548 2.60615e-24 -2.20897e-24 -0.000290846 -1.26412e-17 -1.49141e-17 1.11461e-32 0.001415 
4098 1 0.0474587 0.0419422 0.00965169 0 0 0 1.56381e-18 -5.31728e-19 -0.222548 3.72531e-20 -1.26669e-20 -0.000290846 -4.23434e-17 -1.24531e-16 -2.14334e-31 0.001415 
4639 1 0.000319678 0.0462251 0.0100329 0 0 0 2.24334e-16 -1.20794e-16 -0.222548 5.53068e-18 -2.97803e-18 -0.000290846 -4.15633e-18 -7.71898e-18 2.91649e-30 0.001415 
7349 1 0.0388392 0.0490157 0.0100009 0 0 0 -8.75112e-19 -1.47989e-17 -0.222548 -1.87607e-20 -3.1726e-19 -0.000290846 -1.03661e-16 6.12985e-18 -4.58231e-30 0.001415 
3318 1 0.0108764 -0.0748018 0.01209 0 0 0 0 0 -0.222548 0 0 -0.000290846 0 0 0 0.001415 
5121 1 -0.0078553 -0.064238 0.0108429 0 0 0 -1.11352e-17 -3.91955e-18 -0.222548 -2.6829e-19 -9.44373e-20 -0.000290846 -2.32759e-16 6.61254e-16 6.90648e-29 0.001415 
6407 1 -0.0157638 -0.0542001 0.0117123 0 0 0 -1.30441e-17 3.80286e-18 -0.222548 -1.59506e-19 4.65023e-20 -0.000290846 -2.49592e-16 -8.5612e-16 -3.62332e-31 0.001415 
4748 1 -0.0463698 -0.05198 0.0124624 0 0 0 1.28003e-17 -1.87154e-18 -0.222548 -1.36212e-19 1.99158e-20 -0.000290846 -1.80906e-15 -1.23729e-14 4.973e-29 0.001415 
8903 1 0.00719176 -0.0530399 0.0122381 0 0 0 -2.87129e-18 2.42407e-17 -0.222548 -7.39474e-20 6.24298e-19 -0.000290846 -6.21485e-15 -7.36142e-16 5.4632e-29 0.001415 
8421 1 -0.0125515 -0.050364 0.0119155 0 0 0 0 0 -0.222548 0 0 -0.000290846 0 0 0 0.001415 
5040 1 0.0412118 -0.051077 0.0114926 0 0 0 0 0 -0.222548 0 0 -0.000290846 0 0 0 0.001415 
9218 1 -0.0344149 -0.0491301 0.0109994 0 0 0 -7.75033e-18 2.00615e-17 -0.222548 -1.58884e-19 4.11268e-19 -0.000290846 -3.29968e-15 -1.27476e-15 -5.6153e-29 0.001415 
8294 1 0.0417911 -0.0460756 0.0112606 0 0 0 0 0 -0.222548 0 0 -0.000290846 0 0 0 0.001415 
8781 1 0.0111727 -0.0390904 0.0109058 0 0 0 -2.32608e-17 -1.06114e-17 -0.222548 -2.8619e-19 -1.30558e-19 -0.000290846 -1.98502e-15 4.35127e-15 1.23797e-30 0.001415 
7141 1 -0.0440609 -0.0300013 0.0124531 0 0 0 0 0 -0.222548 0 0 -0.000290846 0 0 0 0.001415 
6550 1 -0.00716818 -0.0295154 0.0120714 0 0 0 -3.95428e-18 6.40895e-19 -0.222548 -4.82764e-20 7.82448e-21 -0.000290846 -4.68736e-17 -2.89207e-16 4.66622e-32 0.001415 
9788 1 -0.0191042 -0.0222982 0.0123051 0 0 0 -5.39975e-18 -6.71442e-18 -0.222548 -2.40547e-19 -2.99112e-19 -0.000290846 4.53744e-15 -3.64902e-15 1.76158e-28 0.001415 
1405 1 0.0162037 -0.0193109 0.0121608 0 0 0 -3.43808e-17 -1.00582e-17 -0.222548 -7.63452e-19 -2.23349e-19 -0.000290846 1.55078e-15 -5.30087e-15 -9.0393e-29 0.001415 
8819 1 0.00974619 -0.0192248 0.0123359 0 0 0 1.42425e-18 4.38056e-17 -0.222548 2.99411e-20 9.20893e-19 -0.000290846 -6.25244e-15 2.03286e-16 -4.81613e-29 0.001415 
4472 1 -0.0211077 -0.0159411 0.0124104 0 0 0 -1.58956e-17 5.43358e-17 -0.222548 -3.02429e-19 1.03379e-18 -0.000290846 -9.90261e-15 -2.89695e-15 -9.09414e-29 0.001415 
4389 1 -0.00210167 -0.0164576 0.0111025 0 0 0 5.9059e-18 -2.87906e-18 -0.222548 1.66586e-19 -8.12085e-20 -0.000290846 -1.13362e-16 -2.32543e-16 -1.32111e-29 0.001415 
2098 1 -0.0163785 -0.0113032 0.0119238 0 0 0 -6.52652e-18 -1.18417e-18 -0.222548 -1.79042e-19 -3.24853e-20 -0.000290846 6.429e-17 -3.54334e-16 -6.38685e-31 0.001415 
4518 1 0.00403554 -0.00678852 0.0106544 0 0 0 -2.16784e-17 2.58797e-17 -0.222548 -4.01987e-19 4.79892e-19 -0.000290846 -6.68579e-15 -5.60043e-15 -1.66046e-28 0.001415 
9888 1 -0.0548111 -0.00420847 0.010697 0 0 0 6.32562e-18 -7.9006e-18 -0.222548 1.63752e-19 -2.04523e-19 -0.000290846 -9.8883e-17 -7.91708e-17 7.37348e-31 0.001415 
3527 1 0.053278 -0.000195356 0.0115639 0 0 0 1.45621e-17 6.62282e-18 -0.222548 1.77468e-19 8.07124e-20 -0.000290846 -5.00067e-16 1.09953e-15 -5.52705e-31 0.001415 
4852 1 -0.0576017 0.00160357 0.0123249 0 0 0 1.28334e-17 2.10569e-17 -0.222548 3.24852e-19 5.33014e-19 -0.000290846 -3.544e-15 2.15994e-15 1.13143e-29 0.001415 
2456 1 0.0231999 0.00341526 0.0124926 0 0 0 -2.33801e-16 1.47031e-16 -0.222548 -2.20338e-18 1.38565e-18 -0.000290846 1.1256e-15 1.78987e-15 -3.12602e-29 0.001415 
1470 1 -0.0541433 0.00552442 0.0109446 0 0 0 2.56902e-17 2.47565e-17 -0.222548 4.78734e-19 4.61333e-19 -0.000290846 -6.29753e-15 6.53505e-15 1.04477e-29 0.001415 
7478 1 0.0063252 0.00556124 0.0107908 0 0 0 0 0 -0.222548 0 0 -0.000290846 0 0 0 0.001415 
5545 1 -0.0302182 0.00727945 0.0110849 0 0 0 0 0 -0.222548 0 0 -0.000290846 0 0 0 0.001415 
4367 1 0.0426483 0.0117219 0.0109905 0 0 0 -1.37866e-17 1.24366e-17 -0.222548 -3.56012e-19 3.21149e-19 -0.000290846 -1.18458e-15 -1.31318e-15 4.22782e-29 0.001415 
4345 1 0.0473197 0.0133822 0.0114261 0 0 0 9.10515e-18 3.20028e-18 -0.222548 1.11211e-19 3.90885e-20 -0.000290846 -2.37771e-16 6.76484e-16 -1.50081e-30 0.001415 
9994 1 -0.0272948 0.0197145 0.0113901 0 0 0 -2.50019e-17 -2.38842e-17 -0.222548 -5.48662e-19 -5.24135e-19 -0.000290846 4.0186e-15 -4.20665e-15 4.02753e-29 0.001415 
1279 1 -0.00741294 0.0227247 0.0122663 0 0 0 -2.89322e-17 -1.07173e-17 -0.222548 -6.05695e-19 -2.24367e-19 -0.000290846 4.26319e-16 -1.15088e-15 -3.34051e-29 0.001415 
2812 1 0.0619348 0.0249338 0.0109431 0 0 0 3.4043e-18 1.72731e-17 -0.222548 1.0102e-19 5.12567e-19 -0.000290846 -1.82492e-15 3.59667e-16 -3.55908e-29 0.001415 
4219 1 0.00713294 0.0263879 0.0107527 0 0 0 2.41373e-18 -1.7839e-17 -0.222548 7.20333e-20 -5.32373e-19 -0.000290846 3.21837e-15 4.35465e-16 1.00055e-29 0.001415 
3552 1 0.038076 0.0255707 0.0114294 0 0 0 -2.06793e-18 1.20976e-17 -0.222548 -5.98977e-20 3.50407e-19 -0.000290846 -2.93354e-15 -5.01451e-16 3.9616e-29 0.001415 
9955 1 0.0480973 0.0295036 0.0117248 0 0 0 0 0 -0.222548 0 0 -0.000290846 0 0 0 0.001415 
6216 1 -0.023401 0.0310553 0.0108221 0 0 0 -2.23323e-18 -1.03835e-17 -0.222548 -2.82857e-20 -1.31516e-19 -0.000290846 -4.75013e-16 1.02163e-16 1.25573e-30 0.001415 
8775 1 0.0134757 0.0326995 0.0113081 0 0 0 -1.79146e-18 3.01495e-18 -0.222548 -6.19091e-20 1.04191e-19 -0.000290846 1.37945e-16 8.19658e-17 -4.64893e-30 0.001415 
7874 1 -0.0157052 0.0360712 0.0110361 0 0 0 -3.4829e-18 -4.11973e-18 -0.222548 -4.24717e-20 -5.02373e-20 -0.000290846 3.68742e-16 -3.11742e-16 3.64841e-32 0.001415 
4099 1 0.0465216 0.0422608 0.012303 0 0 0 -3.02335e-18 1.028e-18 -0.222548 -3.72518e-20 1.26664e-20 -0.000290846 -4.08228e-17 -1.20059e-16 -2.12873e-31 0.001415 
9746 1 -0.0326219 0.0429159 0.0119157 0 0 0 4.45953e-18 -2.8721e-17 -0.222548 1.09414e-19 -7.04666e-19 -0.000290846 6.83925e-15 1.06194e-15 -4.57537e-29 0.001415 
486 1 0.0131757 0.0431015 0.0119002 0 0 0 3.6008e-17 -3.05203e-17 -0.222548 7.17727e-19 -6.08345e-19 -0.000290846 6.63785e-15 7.83136e-15 7.62672e-30 0.001415 
8316 1 0.0241447 0.055508 0.0124678 0 0 0 0 0 -0.222548 0 0 -0.000290846 0 0 0 0.001415 
6048 1 -0.0014895 0.0671831 0.0113154 0 0 0 -2.68184e-17 -1.61158e-18 -0.222548 -6.71159e-19 -4.03314e-20 -0.000290846 2.271e-16 -3.77919e-15 -1.71075e-29 0.001415 
3317 1 0.00879117 -0.0741345 0.0138831 0 0 0 9.80046e-16 -3.13628e-16 -0.222548 3.71661e-17 -1.18937e-17 -0.000290846 -4.78344e-15 -1.49476e-14 -7.92242e-28 0.001415 
4537 1 0.0348065 -0.0668743 0.0138611 0 0 0 3.1176e-16 -6.07132e-16 -0.222548 1.2199e-17 -2.37567e-17 -0.000290846 6.68835e-15 3.43444e-15 2.89132e-29 0.001415 
5120 1 -0.00732864 -0.0640527 0.0136173 0 0 0 -3.80615e-16 -1.33975e-16 -0.222548 -1.57127e-17 -5.53083e-18 -0.000290846 1.71427e-15 -4.87012e-15 7.6406e-29 0.001415 
4749 1 -0.0443437 -0.0522762 0.0144158 0 0 0 -7.44242e-16 1.08817e-16 -0.222548 -3.44247e-17 5.03329e-18 -0.000290846 2.28917e-15 1.56566e-14 -7.38781e-30 0.001415 
6408 1 -0.0176936 -0.0536375 0.0137043 0 0 0 1.05177e-15 -3.06631e-16 -0.222548 4.00296e-17 -1.16702e-17 -0.000290846 -2.39722e-15 -8.22263e-15 -7.58178e-29 0.001415 
9217 1 -0.0337766 -0.0507822 0.0132066 0 0 0 -2.37458e-16 6.14652e-16 -0.222548 -2.08582e-18 5.39908e-18 -0.000290846 6.25043e-16 2.41472e-16 6.07463e-28 0.001415 
5039 1 0.0393096 -0.0515993 0.0135218 0 0 0 9.034e-16 2.48055e-16 -0.222548 1.37486e-17 3.77509e-18 -0.000290846 1.97356e-15 -7.18756e-15 3.48068e-28 0.001415 
8420 1 -0.0130316 -0.0490822 0.0143925 0 0 0 3.21915e-16 -8.59577e-16 -0.222548 1.30973e-17 -3.49724e-17 -0.000290846 -2.186e-15 -8.18663e-16 5.15759e-28 0.001415 
8293 1 0.0410995 -0.0444363 0.0134614 0 0 0 4.19783e-16 -9.94965e-16 -0.222548 1.6376e-17 -3.88142e-17 -0.000290846 -2.0373e-14 -8.59553e-15 6.24989e-28 0.001415 
8782 1 0.00995582 -0.0396456 0.0133997 0 0 0 7.34173e-16 3.34925e-16 -0.222548 3.18831e-17 1.45449e-17 -0.000290846 6.63278e-15 -1.45394e-14 -3.39067e-28 0.001415 
164 1 0.0235073 -0.0400101 0.0126007 0 0 0 2.44364e-17 3.26165e-16 -0.222548 3.17331e-19 4.23559e-18 -0.000290846 -4.40029e-15 3.2967e-16 2.57593e-29 0.001415 
1765 1 -0.00582286 -0.0341936 0.0141546 0 0 0 8.34015e-16 -2.60995e-16 -0.222548 3.4314e-17 -1.07381e-17 -0.000290846 -6.6224e-15 -2.1162e-14 1.8258e-28 0.001415 
2898 1 -0.0015393 -0.0260351 0.0144268 0 0 0 5.79188e-16 -1.14337e-16 -0.222548 2.24337e-17 -4.42863e-18 -0.000290846 1.61988e-16 8.20569e-16 -2.31766e-29 0.001415 
1113 1 0.057839 -0.0250229 0.0132834 0 0 0 8.56529e-16 4.39438e-16 -0.222548 1.56748e-17 8.04189e-18 -0.000290846 4.64656e-15 -9.05682e-15 8.12123e-29 0.001415 
2604 1 -0.0264828 -0.0239558 0.0141513 0 0 0 8.50751e-16 -3.70412e-17 -0.222548 3.37573e-17 -1.46977e-18 -0.000290846 -1.06048e-15 -2.43568e-14 2.73178e-30 0.001415 
8818 1 0.00968245 -0.0211851 0.014376 0 0 0 2.99206e-17 9.20264e-16 -0.222548 1.2642e-18 3.88827e-17 -0.000290846 2.68205e-15 -8.72017e-17 -3.37419e-29 0.001415 
3530 1 0.0663652 -0.0174708 0.0132331 0 0 0 5.44885e-16 6.69227e-16 -0.222548 2.00243e-17 2.45939e-17 -0.000290846 6.43558e-16 -5.23985e-16 -6.66843e-28 0.001415 
8587 1 -0.0404076 -0.0166605 0.0126031 0 0 0 4.15586e-17 -5.48837e-16 -0.222548 4.80257e-19 -6.34245e-18 -0.000290846 4.27936e-16 3.24038e-17 -2.55504e-29 0.001415 
4388 1 -0.00265555 -0.0161876 0.0138646 0 0 0 3.90959e-16 -1.90588e-16 -0.222548 1.62847e-17 -7.93858e-18 -0.000290846 2.01659e-15 4.1367e-15 3.03085e-29 0.001415 
2097 1 -0.0180782 -0.0116116 0.0141653 0 0 0 9.85224e-16 1.78758e-16 -0.222548 3.97502e-17 7.21225e-18 -0.000290846 3.28277e-15 -1.8093e-14 -3.34776e-28 0.001415 
5436 1 0.0238697 -0.0121851 0.0125256 0 0 0 5.10566e-19 -9.70152e-19 -0.222548 8.6006e-20 -1.63424e-19 -0.000290846 4.71547e-15 2.48163e-15 4.37975e-30 0.001415 
4519 1 0.0050482 -0.00799743 0.0130042 0 0 0 -3.60042e-16 4.29818e-16 -0.222548 -4.04261e-18 4.82606e-18 -0.000290846 1.24813e-15 1.04551e-15 4.1937e-28 0.001415 
9887 1 -0.0551901 -0.00373509 0.0134613 0 0 0 2.72972e-16 -3.40937e-16 -0.222548 1.12739e-17 -1.4081e-17 -0.000290846 4.12118e-15 3.29963e-15 -6.47216e-29 0.001415 
4853 1 -0.0586257 -7.65915e-05 0.0143589 0 0 0 5.0652e-16 8.31092e-16 -0.222548 2.05424e-17 3.37058e-17 -0.000290846 -3.53956e-16 2.15723e-16 8.67612e-30 0.001415 
9744 1 -0.0476714 0.00124731 0.0132455 0 0 0 7.08858e-18 8.07448e-18 -0.222548 2.00079e-19 2.27907e-19 -0.000290846 -2.47803e-15 2.17546e-15 -2.15135e-29 0.001415 
3403 1 0.0399954 0.00144601 0.0133805 0 0 0 -8.00448e-16 3.78789e-17 -0.222548 -1.21193e-17 5.73512e-19 -0.000290846 4.4485e-16 9.40047e-15 -3.83364e-29 0.001415 
3526 1 0.0549212 0.000551996 0.0137434 0 0 0 -9.87684e-16 -4.49198e-16 -0.222548 -3.83093e-17 -1.74231e-17 -0.000290846 -8.94842e-15 1.96755e-14 -1.03119e-27 0.001415 
3843 1 -0.0432547 0.00201405 0.0139659 0 0 0 7.9957e-16 5.44797e-16 -0.222548 3.30498e-17 2.25189e-17 -0.000290846 4.8276e-15 -7.08521e-15 1.04233e-27 0.001415 
6238 1 0.0476834 0.00358837 0.0135014 0 0 0 9.97181e-16 -6.41602e-16 -0.222548 3.69205e-17 -2.37552e-17 -0.000290846 -6.14473e-15 -9.55016e-15 2.89938e-28 0.001415 
1469 1 -0.0554428 0.00427207 0.0131244 0 0 0 4.82308e-16 4.64778e-16 -0.222548 4.76265e-18 4.58955e-18 -0.000290846 6.37451e-15 -6.61494e-15 -2.73655e-28 0.001415 
7479 1 0.00708078 0.00479504 0.0134082 0 0 0 -5.15851e-16 5.23105e-16 -0.222548 -2.11552e-17 2.14527e-17 -0.000290846 -1.30489e-15 -1.28679e-15 1.12225e-28 0.001415 
6444 1 -0.0485008 0.00805 0.0128148 0 0 0 -1.58874e-17 1.93545e-17 -0.222548 -4.18399e-19 5.09708e-19 -0.000290846 -5.37691e-15 -4.41369e-15 -1.4825e-28 0.001415 
5546 1 -0.0286421 0.00814112 0.0132718 0 0 0 -8.19709e-16 -4.48147e-16 -0.222548 -8.95984e-18 -4.89847e-18 -0.000290846 -9.73939e-15 1.78144e-14 -5.82929e-28 0.001415 
7897 1 0.0202104 0.0106666 0.0126677 0 0 0 7.16314e-18 3.41439e-17 -0.222548 1.62419e-19 7.74187e-19 -0.000290846 -6.92619e-15 1.45306e-15 -1.67121e-29 0.001415 
4366 1 0.0434972 0.010956 0.0135793 0 0 0 -5.76936e-16 5.20438e-16 -0.222548 -2.34002e-17 2.11087e-17 -0.000290846 2.57991e-16 2.85997e-16 2.40894e-30 0.001415 
4430 1 -0.0607358 0.0123237 0.0129525 0 0 0 -5.56775e-16 1.1894e-16 -0.222548 -5.3414e-18 1.14104e-18 -0.000290846 7.86179e-16 3.68022e-15 -1.89492e-29 0.001415 
5821 1 0.071151 0.0126674 0.0126549 0 0 0 -7.32842e-18 7.04384e-18 -0.222548 -8.9484e-20 8.60091e-20 -0.000290846 -5.56458e-16 -5.7894e-16 -4.30983e-30 0.001415 
4344 1 0.0486622 0.0138541 0.0138723 0 0 0 -8.99826e-16 -3.16271e-16 -0.222548 -3.61225e-17 -1.26964e-17 -0.000290846 -1.77624e-15 5.05361e-15 3.81572e-28 0.001415 
5629 1 -0.00809486 0.0186934 0.0137456 0 0 0 8.51257e-16 1.48916e-17 -0.222548 1.50658e-17 2.63555e-19 -0.000290846 4.82297e-16 -2.75699e-14 7.38391e-29 0.001415 
9993 1 -0.0262716 0.020692 0.013841 0 0 0 -5.68122e-16 -5.42725e-16 -0.222548 -2.52458e-17 -2.41172e-17 -0.000290846 -7.9166e-15 8.28705e-15 4.42568e-28 0.001415 
3553 1 0.038325 0.0241144 0.0138432 0 0 0 -1.34114e-16 7.84578e-16 -0.222548 -6.01647e-18 3.51969e-17 -0.000290846 8.60224e-15 1.47044e-15 1.33246e-28 0.001415 
2811 1 0.0616855 0.0236687 0.0134623 0 0 0 1.71403e-16 8.69685e-16 -0.222548 6.94094e-18 3.52177e-17 -0.000290846 -8.95189e-16 1.7643e-16 -1.1974e-28 0.001415 
4218 1 0.00694369 0.0277865 0.0132056 0 0 0 1.12547e-16 -8.31792e-16 -0.222548 4.80769e-18 -3.5532e-17 -0.000290846 -9.04527e-15 -1.22388e-15 9.28997e-29 0.001415 
9956 1 0.047731 0.0274693 0.0136578 0 0 0 1.65729e-16 9.20424e-16 -0.222548 3.05804e-18 1.69837e-17 -0.000290846 7.87219e-15 -1.41744e-15 -3.26939e-29 0.001415 
6007 1 0.0347873 0.0296881 0.0134276 0 0 0 2.59939e-16 2.91255e-16 -0.222548 1.11654e-17 1.25106e-17 -0.000290846 -2.72501e-15 2.43201e-15 4.89142e-29 0.001415 
8774 1 0.0137081 0.0323084 0.0141013 0 0 0 -1.70573e-16 2.87067e-16 -0.222548 -7.02666e-18 1.18256e-17 -0.000290846 -3.7296e-15 -2.21609e-15 2.05994e-29 0.001415 
6215 1 -0.0229502 0.0331509 0.0126698 0 0 0 -1.89018e-18 -8.78851e-18 -0.222548 -8.15854e-20 -3.79336e-19 -0.000290846 7.92944e-15 -1.70542e-15 -6.47533e-29 0.001415 
3967 1 -0.0257836 0.0351781 0.0128813 0 0 0 -1.99675e-16 6.24677e-16 -0.222548 -1.90467e-18 5.95869e-18 -0.000290846 3.43806e-15 1.09896e-15 -9.68353e-29 0.001415 
7873 1 -0.0162209 0.0354611 0.013751 0 0 0 3.75416e-16 4.44059e-16 -0.222548 1.52913e-17 1.80873e-17 -0.000290846 -6.47824e-15 5.47683e-15 1.5296e-28 0.001415 
6847 1 -0.0500743 0.0395872 0.0139076 0 0 0 -8.99725e-16 3.88071e-16 -0.222548 -1.54543e-17 6.66578e-18 -0.000290846 1.10534e-14 2.56268e-14 -1.22538e-27 0.001415 
487 1 0.0121003 0.044013 0.0143541 0 0 0 5.85077e-16 -4.95911e-16 -0.222548 2.64229e-17 -2.2396e-17 -0.000290846 -3.56684e-15 -4.20817e-15 -2.10781e-29 0.001415 
9747 1 -0.0328934 0.0446643 0.0141243 0 0 0 1.51549e-16 -9.76028e-16 -0.222548 6.15506e-18 -3.96408e-17 -0.000290846 -8.64436e-15 -1.34222e-15 -6.57133e-29 0.001415 
4638 1 0.00148191 0.0455993 0.0125362 0 0 0 4.17932e-18 -2.25038e-18 -0.222548 1.60215e-20 -8.62685e-21 -0.000290846 -7.58343e-16 -1.40836e-15 1.82258e-29 0.001415 
7348 1 0.0388741 0.0496065 0.0127683 0 0 0 -2.30289e-17 -3.89439e-16 -0.222548 -2.94346e-19 -4.97767e-18 -0.000290846 5.4625e-15 -3.23016e-16 -6.89294e-30 0.001415 
8315 1 0.0261215 0.0546907 0.0143206 0 0 0 -9.54915e-16 3.94788e-16 -0.222548 -3.67791e-17 1.52055e-17 -0.000290846 2.90637e-15 7.02993e-15 7.63721e-28 0.001415 
4831 1 0.0293284 0.0560787 0.0129371 0 0 0 6.08047e-16 -3.38008e-16 -0.222548 6.5047e-18 -3.61591e-18 -0.000290846 -7.77871e-15 -1.39932e-14 -5.57407e-28 0.001415 
6909 1 0.00964204 0.0590336 0.0129712 0 0 0 9.15426e-17 -5.51569e-17 -0.222548 1.52562e-18 -9.19226e-19 -0.000290846 1.02829e-14 1.70663e-14 -4.87044e-28 0.001415 
6047 1 -2.16486e-05 0.0672713 0.0137333 0 0 0 -9.60425e-16 -5.7714e-17 -0.222548 -3.85682e-17 -2.31765e-18 -0.000290846 -2.63965e-16 4.39267e-15 3.47672e-29 0.001415 
7455 1 0.00864732 0.0657086 0.0138796 0 0 0 -4.07913e-17 9.67324e-16 -0.222548 -1.69339e-18 4.01569e-17 -0.000290846 1.56411e-15 6.59573e-17 -1.47553e-29 0.001415 
8757 1 0.00829498 0.0765507 0.0133261 0 0 0 0 0 -0.222548 0 0 -0.000290846 0 0 0 0.001415 
3316 1 0.00670592 -0.0734672 0.0156763 0 0 0 -9.80046e-16 3.13628e-16 -0.222548 -3.71661e-17 1.18937e-17 -0.000290846 -4.78344e-15 -1.49476e-14 -7.92242e-28 0.001415 
2499 1 0.0564696 -0.0568217 0.0158232 0 0 0 7.21198e-18 -1.65004e-17 -0.222548 9.05799e-20 -2.0724e-19 -0.000290846 -5.48739e-16 -2.39842e-16 -2.89842e-30 0.001415 
8902 1 0.00739974 -0.0547957 0.0144478 0 0 0 -1.15683e-16 9.76652e-16 -0.222548 -4.73959e-18 4.00138e-17 -0.000290846 6.40721e-15 7.58927e-16 -8.16425e-30 0.001415 
4054 1 -0.0359786 -0.0521436 0.0161098 0 0 0 0 0 -0.222548 0 0 -0.000290846 0 0 0 0.001415 
9216 1 -0.0331383 -0.0524344 0.0154139 0 0 0 1.68784e-16 -4.36892e-16 -0.222548 -7.1411e-18 1.84845e-17 -0.000290846 7.20378e-15 2.78303e-15 3.18084e-28 0.001415 
6409 1 -0.0196234 -0.0530749 0.0156964 0 0 0 -1.05177e-15 3.06631e-16 -0.222548 -4.00296e-17 1.16702e-17 -0.000290846 -2.39722e-15 -8.22263e-15 -7.58178e-29 0.001415 
5038 1 0.0374074 -0.0521216 0.0155511 0 0 0 -7.89197e-16 -2.16698e-16 -0.222548 3.48696e-18 9.57448e-19 -0.000290846 2.15268e-15 -7.83989e-15 4.6718e-28 0.001415 
8292 1 0.0404079 -0.0427971 0.0156622 0 0 0 -4.06012e-16 9.62325e-16 -0.222548 -1.60513e-17 3.80446e-17 -0.000290846 -1.95763e-14 -8.25939e-15 6.76189e-28 0.001415 
163 1 0.0234703 -0.0405039 0.015387 0 0 0 -2.26752e-17 -3.02659e-16 -0.222548 1.97172e-19 2.63176e-18 -0.000290846 -1.67721e-15 1.25657e-16 4.32274e-29 0.001415 
8783 1 0.00873888 -0.0402008 0.0158937 0 0 0 -7.16593e-16 -3.26906e-16 -0.222548 -3.14216e-17 -1.43344e-17 -0.000290846 5.49777e-15 -1.20514e-14 -2.19957e-28 0.001415 
1766 1 -0.00794199 -0.0335305 0.0159091 0 0 0 -7.72978e-16 2.41894e-16 -0.222548 -3.32065e-17 1.03916e-17 -0.000290846 -6.26308e-15 -2.00138e-14 1.44528e-28 0.001415 
7142 1 -0.0430179 -0.0310366 0.0148717 0 0 0 -6.45758e-16 6.40979e-16 -0.222548 -2.69067e-17 2.67076e-17 -0.000290846 9.67141e-15 9.74353e-15 -1.54674e-30 0.001415 
6549 1 -0.00774795 -0.0294214 0.0148398 0 0 0 4.4857e-16 -7.27027e-17 -0.222548 1.7868e-17 -2.89599e-18 -0.000290846 6.01506e-16 3.71125e-15 2.39659e-29 0.001415 
1112 1 0.0563793 -0.0257718 0.0155893 0 0 0 -8.34708e-16 -4.28243e-16 -0.222548 -5.3815e-18 -2.76095e-18 -0.000290846 4.56305e-15 -8.89405e-15 6.52336e-29 0.001415 