ITEM: TIMESTEP
135000
ITEM: NUMBER OF ATOMS
10248
ITEM: BOX BOUNDS ff ff ff
-0.2 0.2
-0.2 0.2
-0.01 0.5
ITEM: ATOMS id type x y z ix iy iz vx vy vz fx fy fz omegax omegay omegaz radius 
168 1 0.0236567 -0.0380164 0.00141358 0 0 0 0.0139953 0.186803 0.00100094 0.00197136 0.0263128 2.21603e-05 -132.117 9.8982 -1.15379e-12 0.001415 
5124 1 -0.00943529 -0.0647942 0.00242996 0 0 0 -1.07556e-17 -3.78593e-18 -0.22647 9.90382e-24 3.48611e-24 -0.000290841 2.43542e-16 -6.91886e-16 1.49153e-32 0.001415 
9891 1 -0.0536741 -0.00562861 0.00231443 0 0 0 7.12623e-18 -8.90055e-18 -0.22647 -6.5619e-24 8.1957e-24 -0.000290841 6.62941e-16 5.30784e-16 -2.89626e-31 0.001415 
8778 1 0.0127785 0.033873 0.00283874 0 0 0 -4.29733e-18 7.23225e-18 -0.22647 3.95702e-24 -6.65952e-24 -0.000290841 -4.43927e-16 -2.63777e-16 3.68624e-31 0.001415 
5123 1 -0.00890863 -0.0646088 0.00520434 0 0 0 9.8192e-18 3.45633e-18 -0.22647 -9.04161e-24 -3.18262e-24 -0.000290841 2.42092e-16 -6.87768e-16 1.77195e-32 0.001415 
167 1 0.023619 -0.0385188 0.00419551 0 0 0 0.0091038 0.121513 -0.00884645 0.00151571 0.020231 -0.00107834 178.857 -13.4 5.29955e-12 0.001415 
5439 1 0.0255064 -0.015295 0.00470731 0 0 0 6.69738e-19 -1.2726e-18 -0.22647 -6.16701e-25 1.17182e-24 -0.000290841 -5.23896e-18 -2.75713e-18 2.22093e-33 0.001415 
9890 1 -0.0540531 -0.00515523 0.0050787 0 0 0 -6.21422e-18 7.76147e-18 -0.22647 5.72211e-24 -7.14683e-24 -0.000290841 6.56934e-16 5.25975e-16 -2.89946e-31 0.001415 
4096 1 0.0493328 0.0413049 0.00425932 0 0 0 1.22137e-17 -4.15292e-18 -0.22647 1.24819e-19 -4.24412e-20 -0.000290841 -4.19119e-16 -1.23262e-15 2.81339e-30 0.001415 
4641 1 -0.00200478 0.0474767 0.00493651 0 0 0 -2.10639e-18 1.1342e-18 -0.22647 1.93959e-24 -1.04438e-24 -0.000290841 5.3485e-18 9.93302e-18 -2.46529e-33 0.001415 
166 1 0.0235805 -0.0390335 0.00697518 0 0 0 -0.00546657 -0.0729653 -0.043037 -0.000382017 -0.00509899 -0.00616978 -39.2324 2.9393 -3.26081e-12 0.001415 
8779 1 0.0136066 -0.0379801 0.0058281 0 0 0 1.14879e-19 5.24073e-20 -0.22647 -1.05782e-25 -4.82571e-26 -0.000290841 -4.07807e-19 8.93933e-19 -5.00751e-34 0.001415 
6552 1 -0.00600865 -0.0297033 0.00644486 0 0 0 7.94144e-19 -1.28712e-19 -0.22647 -7.31255e-25 1.18519e-25 -0.000290841 -4.68467e-19 -2.8904e-18 -2.04091e-34 0.001415 
1407 1 0.0135434 -0.0200891 0.00713619 0 0 0 -6.80086e-19 -1.9896e-19 -0.22647 6.26229e-25 1.83205e-25 -0.000290841 -4.80048e-19 1.6409e-18 -6.54854e-34 0.001415 
4516 1 0.00201022 -0.00437069 0.00586479 0 0 0 -1.07229e-18 1.2801e-18 -0.22647 9.87376e-25 -1.17873e-24 -0.000290841 4.69443e-18 3.93234e-18 -1.24812e-32 0.001415 
5818 1 0.0744051 0.00953964 0.00537423 0 0 0 2.36859e-19 -2.27661e-19 -0.22647 -2.18102e-25 2.09632e-25 -0.000290841 -2.53178e-19 -2.63407e-19 -1.7178e-34 0.001415 
6447 1 -0.0515136 0.0117203 0.00568717 0 0 0 -1.10173e-18 1.34216e-18 -0.22647 1.01448e-24 -1.23588e-24 -0.000290841 4.42231e-18 3.6301e-18 -1.38189e-32 0.001415 
4347 1 0.0446345 0.0124385 0.00644395 0 0 0 -7.28273e-19 -2.55974e-19 -0.22647 6.706e-25 2.35703e-25 -0.000290841 -2.68498e-19 7.63906e-19 -3.25079e-35 0.001415 
9996 1 -0.0293411 0.0177597 0.0063986 0 0 0 -1.75254e-18 -1.6742e-18 -0.22647 1.61376e-24 1.54162e-24 -0.000290841 -7.58304e-18 7.93789e-18 1.07763e-32 0.001415 
1281 1 -0.00910888 0.0220965 0.00681319 0 0 0 -7.2003e-19 -2.66721e-19 -0.22647 6.6301e-25 2.45599e-25 -0.000290841 -8.97963e-19 2.42411e-18 -9.39099e-34 0.001415 
4221 1 0.00751144 0.0235905 0.00575703 0 0 0 3.08433e-20 -2.27952e-19 -0.22647 -2.84008e-26 2.099e-25 -0.000290841 4.14623e-19 5.6101e-20 1.08547e-34 0.001415 
3550 1 0.0375782 0.0284832 0.00651209 0 0 0 -1.07711e-18 6.30121e-18 -0.22647 9.91815e-25 -5.80221e-24 -0.000290841 3.71256e-17 6.34616e-18 -1.16597e-32 0.001415 
2814 1 0.0624335 0.0274639 0.00581496 0 0 0 1.42413e-19 7.22593e-19 -0.22647 -1.31135e-25 -6.6537e-25 -0.000290841 1.17356e-18 -2.31294e-19 1.95764e-33 0.001415 
8777 1 0.0130109 0.0334818 0.00563193 0 0 0 4.09755e-18 -6.89603e-18 -0.22647 -3.77306e-24 6.34992e-24 -0.000290841 -4.43153e-16 -2.63318e-16 3.68503e-31 0.001415 
484 1 0.0153265 0.0412785 0.0069026 0 0 0 2.85375e-18 -2.41884e-18 -0.22647 -2.62776e-24 2.22729e-24 -0.000290841 -1.26409e-17 -1.49138e-17 1.11459e-32 0.001415 
4097 1 0.0483957 0.0416236 0.0069106 0 0 0 -1.07542e-17 3.65665e-18 -0.22647 -1.2482e-19 4.24416e-20 -0.000290841 -4.20639e-16 -1.23709e-15 2.81193e-30 0.001415 
7350 1 0.0388042 0.0484249 0.00714367 0 0 0 -4.44023e-21 -7.50884e-20 -0.22647 4.08861e-27 6.91421e-26 -0.000290841 2.59548e-19 -1.5348e-20 3.67249e-36 0.001415 
5122 1 -0.00838197 -0.0644234 0.00797871 0 0 0 2.58639e-19 9.10402e-20 -0.22647 -1.20327e-20 -4.23548e-21 -0.000290841 1.13885e-16 -3.2354e-16 -3.69878e-30 0.001415 
9219 1 -0.0350531 -0.0474779 0.00870233 0 0 0 0 0 -0.22647 0 0 -0.000290841 0 0 0 0.001415 
8295 1 0.0424827 -0.0477148 0.00897005 0 0 0 0 0 -0.22647 0 0 -0.000290841 0 0 0 0.001415 
8780 1 0.0123897 -0.0385353 0.00832205 0 0 0 2.69755e-17 1.23061e-17 -0.22647 2.82709e-19 1.2897e-19 -0.000290841 -2.29295e-15 5.02626e-15 -1.06998e-30 0.001415 
8589 1 -0.0402517 -0.0187189 0.00724316 0 0 0 5.78181e-20 -7.63566e-19 -0.22647 -5.32395e-26 7.03099e-25 -0.000290841 3.63266e-18 2.75069e-19 -1.53624e-32 0.001415 
5438 1 0.0249608 -0.0142584 0.00728349 0 0 0 1.33767e-16 -2.54178e-16 -0.22647 3.04723e-18 -5.79019e-18 -0.000290841 -3.53481e-15 -1.86028e-15 -8.68449e-30 0.001415 
2100 1 -0.012979 -0.0106864 0.00735081 0 0 0 3.02661e-16 5.49145e-17 -0.22647 6.75597e-18 1.2258e-18 -0.000290841 -7.06765e-16 3.89532e-15 1.49136e-29 0.001415 
9889 1 -0.0544321 -0.00468185 0.00784296 0 0 0 -9.12005e-19 1.13908e-18 -0.22647 8.39782e-25 -1.04887e-24 -0.000290841 -6.00701e-18 -4.80951e-18 -3.20194e-34 0.001415 
4517 1 0.00302288 -0.0055796 0.00821467 0 0 0 1.07229e-18 -1.2801e-18 -0.22647 -9.87376e-25 1.17873e-24 -0.000290841 4.69443e-18 3.93234e-18 -1.24812e-32 0.001415 
7477 1 0.00556963 0.00632744 0.00808357 0 0 0 0 0 -0.22647 0 0 -0.000290841 0 0 0 0.001415 
6446 1 -0.0505093 0.0104969 0.00803313 0 0 0 -2.7503e-18 3.3505e-18 -0.22647 -4.14328e-20 5.04749e-20 -0.000290841 8.27708e-17 6.79433e-17 1.24248e-30 0.001415 
5819 1 0.0733204 0.0105822 0.00777117 0 0 0 -2.36825e-19 2.27628e-19 -0.22647 2.1807e-25 -2.09602e-25 -0.000290841 -2.3832e-19 -2.47949e-19 9.03029e-35 0.001415 
4368 1 0.0417993 0.0124877 0.00831198 0 0 0 0 0 -0.22647 0 0 -0.000290841 0 0 0 0.001415 
4346 1 0.0459771 0.0129104 0.00889012 0 0 0 -9.8688e-18 -3.46869e-18 -0.22647 -1.10838e-19 -3.89575e-20 -0.000290841 -3.30962e-16 9.41623e-16 -2.05646e-30 0.001415 
9995 1 -0.0283179 0.0187371 0.00884945 0 0 0 1.75254e-18 1.6742e-18 -0.22647 -1.61376e-24 -1.54162e-24 -0.000290841 -7.58304e-18 7.93789e-18 1.07763e-32 0.001415 
4220 1 0.00732219 0.0249892 0.00820994 0 0 0 1.55314e-18 -1.14787e-17 -0.22647 1.80016e-20 -1.33043e-19 -0.000290841 -6.71828e-16 -9.09024e-17 1.22825e-30 0.001415 
2813 1 0.0621842 0.0261988 0.00833414 0 0 0 1.3934e-18 7.07002e-18 -0.22647 1.80906e-20 9.17903e-20 -0.000290841 2.07927e-16 -4.09797e-17 2.94067e-31 0.001415 
3551 1 0.0378271 0.027027 0.00892585 0 0 0 1.07711e-18 -6.30121e-18 -0.22647 -9.91815e-25 5.80221e-24 -0.000290841 3.71256e-17 6.34616e-18 -1.16597e-32 0.001415 
8776 1 0.0132433 0.0330907 0.00842511 0 0 0 -7.35714e-19 1.23818e-18 -0.22647 -1.11732e-20 1.88041e-20 -0.000290841 6.4548e-17 3.83538e-17 7.71851e-31 0.001415 
3969 1 -0.0266131 0.0377733 0.00783042 0 0 0 -1.51296e-17 4.73325e-17 -0.22647 -1.55281e-19 4.85792e-19 -0.000290841 -5.40049e-15 -1.72624e-15 5.80995e-30 0.001415 
7875 1 -0.0151895 0.0366812 0.00823135 0 0 0 4.05446e-18 4.79579e-18 -0.22647 4.28251e-20 5.06554e-20 -0.000290841 5.02335e-16 -4.24684e-16 1.80199e-31 0.001415 
4640 1 -0.000842548 0.0468509 0.0074398 0 0 0 -3.52865e-16 1.90002e-16 -0.22647 -8.18423e-18 4.40685e-18 -0.000290841 -3.49775e-16 -6.49589e-16 -7.9722e-30 0.001415 
5121 1 -0.0078553 -0.064238 0.0107531 0 0 0 -1.62973e-17 -5.7366e-18 -0.22647 -4.67103e-19 -1.64419e-19 -0.000290841 -8.74569e-17 2.48459e-16 9.75239e-29 0.001415 
6406 1 -0.013834 -0.0547628 0.00963045 0 0 0 1.51742e-17 -4.42387e-18 -0.22647 1.56484e-19 -4.56213e-20 -0.000290841 -3.4645e-16 -1.18835e-15 3.54301e-31 0.001415 
4747 1 -0.048396 -0.0516837 0.0104192 0 0 0 -4.52877e-17 6.62158e-18 -0.22647 -4.71342e-19 6.89155e-20 -0.000290841 -1.29329e-16 -8.84531e-16 -2.33808e-30 0.001415 
8904 1 0.00698378 -0.051284 0.0099386 0 0 0 0 0 -0.22647 0 0 -0.000290841 0 0 0 0.001415 
9218 1 -0.0344149 -0.0491301 0.0109096 0 0 0 -9.9881e-18 2.58539e-17 -0.22647 -1.72908e-19 4.47567e-19 -0.000290841 -4.80675e-15 -1.85699e-15 -7.09622e-29 0.001415 
8781 1 0.0111727 -0.0390904 0.010816 0 0 0 -2.25104e-17 -1.02691e-17 -0.22647 3.14934e-19 1.43671e-19 -0.000290841 -2.89769e-15 6.35187e-15 -1.22816e-29 0.001415 
165 1 0.0235439 -0.0395218 0.0097596 0 0 0 -0.00205532 -0.0274335 -0.0330117 0.000100873 0.00134641 -0.00500652 6.31659 -0.47324 -6.44285e-13 0.001415 
6551 1 -0.00658842 -0.0296093 0.00921324 0 0 0 3.80438e-18 -6.166e-19 -0.22647 4.72934e-20 -7.66515e-21 -0.000290841 -6.77148e-17 -4.17796e-16 1.38855e-31 0.001415 
9787 1 -0.0202299 -0.023698 0.0100284 0 0 0 -6.51729e-18 -8.10405e-18 -0.22647 -7.21339e-20 -8.96962e-20 -0.000290841 -4.9006e-16 3.94107e-16 -8.00154e-30 0.001415 
1406 1 0.0148736 -0.0197 0.00960361 0 0 0 6.80086e-19 1.9896e-19 -0.22647 -6.26229e-25 -1.83205e-25 -0.000290841 -4.80048e-19 1.6409e-18 -6.54854e-34 0.001415 
8588 1 -0.0403296 -0.0176897 0.00987823 0 0 0 5.58341e-18 -7.37364e-17 -0.22647 1.01966e-19 -1.34659e-18 -0.000290841 9.50255e-15 7.19544e-16 8.4369e-29 0.001415 
4389 1 -0.00210167 -0.0164576 0.0110127 0 0 0 9.59749e-18 -4.67866e-18 -0.22647 3.55309e-19 -1.73209e-19 -0.000290841 1.02148e-16 2.0954e-16 -2.86198e-29 0.001415 
8820 1 0.00980992 -0.0172644 0.010206 0 0 0 0 0 -0.22647 0 0 -0.000290841 0 0 0 0.001415 
3529 1 0.0670132 -0.0166749 0.010506 0 0 0 0 0 -0.22647 0 0 -0.000290841 0 0 0 0.001415 
4473 1 -0.0215554 -0.0144106 0.00998269 0 0 0 0 0 -0.22647 0 0 -0.000290841 0 0 0 0.001415 
5437 1 0.0244153 -0.0132218 0.00985966 0 0 0 -1.18981e-16 2.26081e-16 -0.22647 -2.70948e-18 5.14842e-18 -0.000290841 -2.75485e-17 -1.44981e-17 -5.3107e-30 0.001415 
2099 1 -0.0146787 -0.0109948 0.00959238 0 0 0 -2.91014e-16 -5.28014e-17 -0.22647 -6.30496e-18 -1.14397e-18 -0.000290841 -5.56874e-16 3.0692e-15 1.07655e-29 0.001415 
4518 1 0.00403554 -0.00678852 0.0105646 0 0 0 -2.73318e-17 3.26287e-17 -0.22647 -4.36144e-19 5.20669e-19 -0.000290841 -9.54945e-15 -7.99922e-15 -2.86536e-28 0.001415 
9888 1 -0.0548111 -0.00420847 0.0106072 0 0 0 9.47633e-18 -1.18358e-17 -0.22647 2.86404e-19 -3.57714e-19 -0.000290841 3.96531e-16 3.17483e-16 2.32316e-29 0.001415 
3528 1 0.0516347 -0.000942708 0.00929465 0 0 0 -1.69305e-17 -7.69997e-18 -0.22647 -1.73873e-19 -7.90773e-20 -0.000290841 -6.94068e-16 1.5261e-15 -1.68164e-30 0.001415 
2457 1 0.0227749 0.00368251 0.00961764 0 0 0 0 0 -0.22647 0 0 -0.000290841 0 0 0 0.001415 
1470 1 -0.0541433 0.00552442 0.0108548 0 0 0 3.24294e-17 3.12507e-17 -0.22647 5.20456e-19 5.01539e-19 -0.000290841 -9.44344e-15 9.79962e-15 -6.07104e-29 0.001415 
7478 1 0.0063252 0.00556124 0.010701 0 0 0 -2.63928e-18 2.67639e-18 -0.22647 -3.44911e-19 3.49761e-19 -0.000290841 -4.5679e-16 -4.50456e-16 -1.93761e-29 0.001415 
5545 1 -0.0302182 0.00727945 0.0109951 0 0 0 0 0 -0.22647 0 0 -0.000290841 0 0 0 0.001415 
6445 1 -0.0495051 0.00927345 0.0103791 0 0 0 -3.169e-19 3.86058e-19 -0.22647 -9.97657e-21 1.21538e-20 -0.000290841 1.95058e-16 1.60116e-16 1.36193e-30 0.001415 
4431 1 -0.0620527 0.012605 0.0103736 0 0 0 -4.38194e-17 9.36081e-18 -0.22647 -6.84025e-19 1.46123e-19 -0.000290841 -2.02904e-15 -9.49823e-15 -2.48109e-29 0.001415 
4367 1 0.0426483 0.0117219 0.0109007 0 0 0 -2.06621e-17 1.86387e-17 -0.22647 -6.25993e-19 5.64692e-19 -0.000290841 -2.56665e-15 -2.84528e-15 1.3588e-29 0.001415 
5820 1 0.0722357 0.0116248 0.0101681 0 0 0 8.52292e-18 -8.19194e-18 -0.22647 8.77173e-20 -8.43109e-20 -0.000290841 -7.72295e-16 -8.03497e-16 -5.80024e-30 0.001415 
1280 1 -0.00826091 0.0224106 0.00949482 0 0 0 7.2003e-19 2.66721e-19 -0.22647 -6.6301e-25 -2.45599e-25 -0.000290841 -8.97963e-19 2.42411e-18 -9.39099e-34 0.001415 
2812 1 0.0619348 0.0249338 0.0108533 0 0 0 5.38886e-18 2.73426e-17 -0.22647 1.8191e-19 9.22996e-19 -0.000290841 -4.2625e-15 8.40081e-16 -3.13916e-29 0.001415 
4219 1 0.00713294 0.0263879 0.0106629 0 0 0 3.7419e-18 -2.76551e-17 -0.22647 1.13629e-19 -8.39788e-19 -0.000290841 5.68826e-15 7.69657e-16 5.60431e-29 0.001415 
6216 1 -0.023401 0.0310553 0.0107323 0 0 0 -2.61399e-18 -1.21539e-17 -0.22647 -2.82075e-20 -1.31153e-19 -0.000290841 -7.05855e-16 1.51811e-16 2.27074e-30 0.001415 
3968 1 -0.0261983 0.0364757 0.010311 0 0 0 1.51296e-17 -4.73325e-17 -0.22647 1.55281e-19 -4.85792e-19 -0.000290841 -5.40049e-15 -1.72624e-15 5.80995e-30 0.001415 
7874 1 -0.0157052 0.0360712 0.0109463 0 0 0 -1.63289e-18 -1.93145e-18 -0.22647 2.72246e-19 3.22024e-19 -0.000290841 1.22821e-16 -1.03836e-16 -2.06725e-29 0.001415 
9745 1 -0.0323504 0.0411674 0.00961726 0 0 0 0 0 -0.22647 0 0 -0.000290841 0 0 0 0.001415 
485 1 0.0142511 0.04219 0.0093565 0 0 0 -2.85375e-18 2.41884e-18 -0.22647 2.62776e-24 -2.22729e-24 -0.000290841 -1.26409e-17 -1.49138e-17 1.11459e-32 0.001415 
4098 1 0.0474587 0.0419422 0.00956188 0 0 0 2.06642e-18 -7.02629e-19 -0.22647 3.78087e-20 -1.28558e-20 -0.000290841 -6.2745e-17 -1.84532e-16 -4.12079e-31 0.001415 
4639 1 0.000319678 0.0462251 0.0099431 0 0 0 3.33604e-16 -1.79631e-16 -0.22647 7.63529e-18 -4.11127e-18 -0.000290841 5.2206e-16 9.6955e-16 1.68685e-29 0.001415 
7349 1 0.0388392 0.0490157 0.0099111 0 0 0 -1.20075e-18 -2.03057e-17 -0.22647 -2.80724e-20 -4.7473e-19 -0.000290841 7.31056e-16 -4.32298e-17 -7.0871e-30 0.001415 
3318 1 0.0108764 -0.0748018 0.0120002 0 0 0 0 0 -0.22647 0 0 -0.000290841 0 0 0 0.001415 
6407 1 -0.0157638 -0.0542001 0.0116225 0 0 0 -1.51742e-17 4.42387e-18 -0.22647 -1.56484e-19 4.56213e-20 -0.000290841 -3.4645e-16 -1.18835e-15 3.54301e-31 0.001415 
4748 1 -0.0463698 -0.05198 0.0123726 0 0 0 9.92056e-18 -1.4505e-18 -0.22647 -2.83735e-19 4.14853e-20 -0.000290841 -2.64886e-15 -1.81167e-14 6.60286e-29 0.001415 
8903 1 0.00719176 -0.0530399 0.0121483 0 0 0 -3.99243e-18 3.3706e-17 -0.22647 -9.14409e-20 7.71986e-19 -0.000290841 -1.00264e-14 -1.18761e-15 7.9537e-29 0.001415 
8421 1 -0.0125515 -0.050364 0.0118257 0 0 0 1.35379e-18 -3.61488e-18 -0.22647 1.77497e-19 -4.73952e-19 -0.000290841 9.89275e-16 3.70487e-16 -6.48548e-29 0.001415 
5040 1 0.0412118 -0.051077 0.0114028 0 0 0 0 0 -0.22647 0 0 -0.000290841 0 0 0 0.001415 
8294 1 0.0417911 -0.0460756 0.0111708 0 0 0 0 0 -0.22647 0 0 -0.000290841 0 0 0 0.001415 
164 1 0.0235069 -0.040016 0.0125429 0 0 0 -0.00265126 -0.0353878 -0.0324537 7.05199e-05 0.000941267 -0.00504863 -0.857608 0.0642521 -9.87315e-12 0.001415 
7141 1 -0.0440609 -0.0300013 0.0123633 0 0 0 0 0 -0.22647 0 0 -0.000290841 0 0 0 0.001415 
6550 1 -0.00716818 -0.0295154 0.0119816 0 0 0 -4.59852e-18 7.45312e-19 -0.22647 -4.72927e-20 7.66503e-21 -0.000290841 -6.72464e-17 -4.14905e-16 1.39059e-31 0.001415 
9788 1 -0.0191042 -0.0222982 0.0122153 0 0 0 -1.14222e-17 -1.42032e-17 -0.22647 -6.01281e-19 -7.47674e-19 -0.000290841 7.60946e-15 -6.11954e-15 3.6492e-28 0.001415 
1405 1 0.0162037 -0.0193109 0.012071 0 0 0 -4.80133e-17 -1.40464e-17 -0.22647 -1.19392e-18 -3.49285e-19 -0.000290841 2.55892e-15 -8.74691e-15 -1.70429e-28 0.001415 
8819 1 0.00974619 -0.0192248 0.0122461 0 0 0 1.86774e-18 5.74458e-17 -0.22647 3.55584e-20 1.09366e-18 -0.000290841 -1.08671e-14 3.53323e-16 -6.3162e-29 0.001415 
8587 1 -0.0404076 -0.0166605 0.0125133 0 0 0 4.72329e-17 -6.23774e-16 -0.22647 3.85935e-19 -5.09679e-18 -0.000290841 -9.91029e-16 -7.50418e-17 -3.10508e-29 0.001415 
4472 1 -0.0211077 -0.0159411 0.0123206 0 0 0 -2.03241e-17 6.94736e-17 -0.22647 -3.51556e-19 1.20172e-18 -0.000290841 -1.4919e-14 -4.36447e-15 -1.24559e-28 0.001415 
5436 1 0.0238697 -0.0121851 0.0124358 0 0 0 1.52231e-18 -2.89262e-18 -0.22647 1.05058e-19 -1.99625e-19 -0.000290841 7.63729e-15 4.01931e-15 5.47588e-29 0.001415 
2098 1 -0.0163785 -0.0113032 0.011834 0 0 0 -1.16462e-17 -2.11308e-18 -0.22647 -4.51012e-19 -8.18312e-20 -0.000290841 1.49891e-16 -8.26122e-16 -4.14807e-30 0.001415 
4519 1 0.0050482 -0.00799743 0.0129144 0 0 0 -4.0953e-16 4.88897e-16 -0.22647 -3.55106e-18 4.23925e-18 -0.000290841 5.81972e-16 4.87496e-16 6.65265e-28 0.001415 
3527 1 0.053278 -0.000195356 0.0114741 0 0 0 1.69305e-17 7.69997e-18 -0.22647 1.73873e-19 7.90773e-20 -0.000290841 -6.94068e-16 1.5261e-15 -1.68164e-30 0.001415 
4852 1 -0.0576017 0.00160357 0.0122351 0 0 0 1.77473e-17 2.91196e-17 -0.22647 4.00471e-19 6.57088e-19 -0.000290841 -6.29127e-15 3.83429e-15 6.89861e-29 0.001415 
2456 1 0.0231999 0.00341526 0.0124028 0 0 0 -2.60722e-16 1.63961e-16 -0.22647 -1.9223e-18 1.20888e-18 -0.000290841 1.21523e-15 1.9324e-15 -4.67877e-29 0.001415 
6444 1 -0.0485008 0.00805 0.012725 0 0 0 -2.38901e-17 2.91038e-17 -0.22647 -7.22838e-19 8.80586e-19 -0.000290841 -8.66072e-15 -7.10924e-15 -3.41285e-28 0.001415 
7897 1 0.0202104 0.0106666 0.0125779 0 0 0 9.59055e-18 4.57144e-17 -0.22647 1.96031e-19 9.34405e-19 -0.000290841 -1.22641e-14 2.57292e-15 -2.55848e-30 0.001415 
4430 1 -0.0607358 0.0123237 0.0128627 0 0 0 -6.22325e-16 1.32943e-16 -0.22647 -4.71556e-18 1.00735e-18 -0.000290841 6.97592e-16 3.26554e-15 -5.06606e-29 0.001415 
4345 1 0.0473197 0.0133822 0.0113363 0 0 0 5.8989e-18 2.07335e-18 -0.22647 -5.02929e-19 -1.76769e-19 -0.000290841 1.78177e-16 -5.06933e-16 -2.29419e-29 0.001415 
5821 1 0.071151 0.0126674 0.0125651 0 0 0 -8.52295e-18 8.19198e-18 -0.22647 -8.77173e-20 8.43109e-20 -0.000290841 -7.7231e-16 -8.03512e-16 -5.8005e-30 0.001415 
9994 1 -0.0272948 0.0197145 0.0113003 0 0 0 -3.48895e-17 -3.33299e-17 -0.22647 -8.69151e-19 -8.30298e-19 -0.000290841 6.84528e-15 -7.16561e-15 8.90839e-29 0.001415 
1279 1 -0.00741294 0.0227247 0.0121765 0 0 0 -3.89874e-17 -1.44421e-17 -0.22647 -8.5138e-19 -3.15376e-19 -0.000290841 8.54026e-16 -2.3055e-15 -4.7999e-29 0.001415 
3552 1 0.038076 0.0255707 0.0113396 0 0 0 -3.34516e-18 1.95695e-17 -0.22647 -1.21218e-19 7.09137e-19 -0.000290841 -5.27004e-15 -9.00847e-16 6.78009e-29 0.001415 
9955 1 0.0480973 0.0295036 0.011635 0 0 0 0 0 -0.22647 0 0 -0.000290841 0 0 0 0.001415 
6215 1 -0.0229502 0.0331509 0.01258 0 0 0 -3.183e-18 -1.47995e-17 -0.22647 -1.08909e-19 -5.06381e-19 -0.000290841 1.26521e-14 -2.72113e-15 -9.05301e-29 0.001415 
8775 1 0.0134757 0.0326995 0.0112183 0 0 0 -3.24838e-18 5.46689e-18 -0.22647 -1.43009e-19 2.40678e-19 -0.000290841 -2.15294e-16 -1.27926e-16 5.04056e-30 0.001415 
3967 1 -0.0257836 0.0351781 0.0127915 0 0 0 -2.23429e-16 6.98989e-16 -0.22647 -1.72465e-18 5.39551e-18 -0.000290841 3.92779e-15 1.2555e-15 -1.77797e-28 0.001415 
4099 1 0.0465216 0.0422608 0.0122132 0 0 0 -7.79873e-19 2.65174e-19 -0.22647 3.21961e-19 -1.09474e-19 -0.000290841 7.7825e-17 2.28882e-16 -4.92796e-30 0.001415 
9746 1 -0.0326219 0.0429159 0.0118259 0 0 0 6.10894e-18 -3.93438e-17 -0.22647 1.3397e-19 -8.62812e-19 -0.000290841 1.09874e-14 1.70603e-15 -6.83178e-29 0.001415 
486 1 0.0131757 0.0431015 0.0118104 0 0 0 4.75004e-17 -4.02613e-17 -0.22647 9.54956e-19 -8.0942e-19 -0.000290841 9.82634e-15 1.15932e-14 1.4436e-29 0.001415 
4638 1 0.00148191 0.0455993 0.0124464 0 0 0 3.60475e-18 -1.941e-18 -0.22647 -1.3447e-19 7.24064e-20 -0.000290841 -1.39502e-15 -2.59078e-15 1.18976e-28 0.001415 
7348 1 0.0388741 0.0496065 0.0126785 0 0 0 -2.65445e-17 -4.48891e-16 -0.22647 -2.41831e-19 -4.08958e-18 -0.000290841 6.3394e-15 -3.7487e-16 -4.01816e-30 0.001415 
8316 1 0.0241447 0.055508 0.012378 0 0 0 0 0 -0.22647 0 0 -0.000290841 0 0 0 0.001415 
4831 1 0.0293284 0.0560787 0.0128473 0 0 0 6.89249e-16 -3.83148e-16 -0.22647 5.87758e-18 -3.2673e-18 -0.000290841 -9.54906e-15 -1.71779e-14 -7.61968e-28 0.001415 
6909 1 0.00964204 0.0590336 0.0128814 0 0 0 1.13341e-16 -6.82912e-17 -0.22647 1.69859e-18 -1.02345e-18 -0.000290841 1.5525e-14 2.57665e-14 -6.52083e-28 0.001415 
6048 1 -0.0014895 0.0671831 0.0112255 0 0 0 -3.88188e-17 -2.3327e-18 -0.22647 -1.0567e-18 -6.34994e-20 -0.000290841 4.23102e-16 -7.04088e-15 -3.45977e-29 0.001415 
3317 1 0.00879117 -0.0741345 0.0137933 0 0 0 1.12896e-15 -3.61283e-16 -0.22647 2.71116e-18 -8.67609e-19 -0.000290841 -8.07265e-15 -2.52259e-14 -1.12469e-27 0.001415 
4537 1 0.0348065 -0.0668743 0.0137713 0 0 0 3.8813e-16 -7.55857e-16 -0.22647 6.27595e-18 -1.2222e-17 -0.000290841 5.5203e-15 2.83465e-15 2.13301e-29 0.001415 
5120 1 -0.00732864 -0.0640527 0.0135275 0 0 0 -4.73748e-16 -1.66758e-16 -0.22647 -7.62187e-18 -2.68288e-18 -0.000290841 1.66859e-15 -4.74036e-15 1.18608e-28 0.001415 
8902 1 0.00739974 -0.0547957 0.014358 0 0 0 -1.45878e-16 1.23157e-15 -0.22647 -2.51174e-18 2.12053e-17 -0.000290841 1.28921e-14 1.52705e-15 -1.89352e-29 0.001415 
4749 1 -0.0443437 -0.0522762 0.014326 0 0 0 -9.53355e-16 1.39391e-16 -0.22647 -1.74304e-17 2.54852e-18 -0.000290841 3.6933e-15 2.526e-14 -6.30977e-29 0.001415 
6408 1 -0.0176936 -0.0536375 0.0136145 0 0 0 1.32612e-15 -3.86616e-16 -0.22647 2.88192e-17 -8.40193e-18 -0.000290841 -5.89178e-15 -2.02092e-14 -5.32842e-28 0.001415 
9217 1 -0.0337766 -0.0507822 0.0131168 0 0 0 -2.63496e-16 6.82052e-16 -0.22647 -1.88707e-18 4.88463e-18 -0.000290841 5.42676e-16 2.09651e-16 7.63929e-28 0.001415 
5039 1 0.0393096 -0.0515993 0.013432 0 0 0 1.0788e-15 2.96216e-16 -0.22647 1.26896e-17 3.4843e-18 -0.000290841 3.40383e-15 -1.23965e-14 7.2098e-28 0.001415 
8420 1 -0.0130316 -0.0490822 0.0143027 0 0 0 4.03566e-16 -1.0776e-15 -0.22647 6.61654e-18 -1.76675e-17 -0.000290841 -7.64957e-15 -2.86479e-15 8.64364e-28 0.001415 
8293 1 0.0410995 -0.0444363 0.0133716 0 0 0 5.01245e-16 -1.18804e-15 -0.22647 3.70041e-18 -8.77067e-18 -0.000290841 -3.21118e-14 -1.35482e-14 8.49972e-28 0.001415 
8782 1 0.00995582 -0.0396456 0.0133099 0 0 0 9.25918e-16 4.22398e-16 -0.22647 1.54595e-17 7.05254e-18 -0.000290841 9.96414e-15 -2.18419e-14 -5.42153e-28 0.001415 
1765 1 -0.00582286 -0.0341936 0.0140648 0 0 0 1.05725e-15 -3.30855e-16 -0.22647 1.85109e-17 -5.79277e-18 -0.000290841 -1.07047e-14 -3.42072e-14 3.94402e-28 0.001415 
7142 1 -0.0430179 -0.0310366 0.0147819 0 0 0 -8.14756e-16 8.08725e-16 -0.22647 -1.38779e-17 1.37752e-17 -0.000290841 1.64333e-14 1.65558e-14 5.11739e-29 0.001415 
6549 1 -0.00774795 -0.0294214 0.01475 0 0 0 5.59711e-16 -9.0716e-17 -0.22647 9.11411e-18 -1.47718e-18 -0.000290841 4.26746e-16 2.63299e-15 5.30314e-29 0.001415 
2898 1 -0.0015393 -0.0260351 0.014337 0 0 0 7.20354e-16 -1.42205e-16 -0.22647 1.15915e-17 -2.28827e-18 -0.000290841 -4.97236e-16 -2.5188e-15 -2.68389e-29 0.001415 
1113 1 0.057839 -0.0250229 0.0131936 0 0 0 1.05298e-15 5.40226e-16 -0.22647 1.39646e-17 7.1645e-18 -0.000290841 7.23516e-15 -1.41024e-14 2.60191e-28 0.001415 
2604 1 -0.0264828 -0.0239558 0.0140615 0 0 0 1.07473e-15 -4.6793e-17 -0.22647 1.86288e-17 -8.1109e-19 -0.000290841 -1.60656e-15 -3.68989e-14 -3.33547e-29 0.001415 
7959 1 -0.0480224 -0.0227988 0.0147435 0 0 0 -1.11318e-15 6.94323e-16 -0.22647 -1.87387e-17 1.16878e-17 -0.000290841 1.48173e-14 2.37562e-14 1.41618e-27 0.001415 
8818 1 0.00968245 -0.0211851 0.0142862 0 0 0 3.78631e-17 1.16455e-15 -0.22647 6.62843e-19 2.0387e-17 -0.000290841 8.96996e-15 -2.91641e-16 -3.91467e-29 0.001415 
9789 1 -0.0179785 -0.0208985 0.0144021 0 0 0 -8.56722e-16 -1.06531e-15 -0.22647 -1.3633e-17 -1.69522e-17 -0.000290841 -2.04657e-14 1.64586e-14 2.80394e-29 0.001415 
4471 1 -0.0206599 -0.0174716 0.0146586 0 0 0 -2.86367e-16 9.78885e-16 -0.22647 -5.22821e-18 1.78715e-17 -0.000290841 4.34777e-15 1.27191e-15 -1.83895e-29 0.001415 
1404 1 0.0175339 -0.0189217 0.0145384 0 0 0 -1.02975e-15 -3.01257e-16 -0.22647 -1.7059e-17 -4.99064e-18 -0.000290841 -2.46893e-15 8.43928e-15 3.52305e-28 0.001415 
3530 1 0.0663652 -0.0174708 0.0131433 0 0 0 6.74038e-16 8.27852e-16 -0.22647 1.06e-17 1.30189e-17 -0.000290841 4.88122e-15 -3.97429e-15 -8.92462e-28 0.001415 
4388 1 -0.00265555 -0.0161876 0.0137748 0 0 0 4.87903e-16 -2.37847e-16 -0.22647 7.88443e-18 -3.84357e-18 -0.000290841 1.64212e-15 3.36852e-15 4.96035e-29 0.001415 
2097 1 -0.0180782 -0.0116116 0.0140755 0 0 0 1.23957e-15 2.24907e-16 -0.22647 2.08334e-17 3.77999e-18 -0.000290841 5.42026e-15 -2.98737e-14 -5.08628e-28 0.001415 
9887 1 -0.0551901 -0.00373509 0.0133715 0 0 0 3.40066e-16 -4.24737e-16 -0.22647 5.4886e-18 -6.85518e-18 -0.000290841 4.05041e-15 3.24297e-15 -4.34686e-29 0.001415 
4853 1 -0.0586257 -7.65915e-05 0.0142691 0 0 0 6.38499e-16 1.04764e-15 -0.22647 1.09977e-17 1.80448e-17 -0.000290841 5.4241e-15 -3.30579e-15 -4.05148e-28 0.001415 
9743 1 -0.0492029 -0.00049722 0.0147743 0 0 0 5.5524e-16 6.32465e-16 -0.22647 1.02206e-17 1.16421e-17 -0.000290841 2.04789e-14 -1.79784e-14 8.45657e-28 0.001415 
9744 1 -0.0476714 0.00124731 0.0131557 0 0 0 1.01785e-17 1.15942e-17 -0.22647 2.54867e-19 2.90314e-19 -0.000290841 -4.61282e-15 4.04959e-15 -1.08023e-28 0.001415 
3403 1 0.0399954 0.00144601 0.0132907 0 0 0 -9.545e-16 4.5169e-17 -0.22647 -1.11339e-17 5.26878e-19 -0.000290841 7.03273e-16 1.48614e-14 -7.85151e-29 0.001415 
3526 1 0.0549212 0.000551996 0.0136536 0 0 0 -1.23668e-15 -5.62441e-16 -0.22647 -2.05015e-17 -9.32406e-18 -0.000290841 -1.43455e-14 3.15424e-14 -1.32632e-27 0.001415 
3843 1 -0.0432547 0.00201405 0.0138761 0 0 0 1.0129e-15 6.90151e-16 -0.22647 1.77416e-17 1.20885e-17 -0.000290841 9.64973e-15 -1.41624e-14 1.33317e-27 0.001415 
6238 1 0.0476834 0.00358837 0.0134116 0 0 0 1.24163e-15 -7.98884e-16 -0.22647 1.98989e-17 -1.28033e-17 -0.000290841 -1.30384e-14 -2.02643e-14 6.30316e-28 0.001415 
1469 1 -0.0554428 0.00427207 0.0130346 0 0 0 5.41612e-16 5.21927e-16 -0.22647 4.27155e-18 4.1163e-18 -0.000290841 7.57064e-15 -7.85618e-15 -2.27118e-28 0.001415 
7479 1 0.00708078 0.00479504 0.0133184 0 0 0 -6.42493e-16 6.51528e-16 -0.22647 -1.02139e-17 1.03575e-17 -0.000290841 1.23257e-15 1.21548e-15 2.85864e-28 0.001415 
5546 1 -0.0286421 0.00814112 0.013182 0 0 0 -9.33575e-16 -5.10399e-16 -0.22647 -8.25492e-18 -4.51308e-18 -0.000290841 -1.24487e-14 2.27701e-14 -1.33873e-27 0.001415 
7898 1 0.0197791 0.00861083 0.0144744 0 0 0 2.43925e-16 1.16269e-15 -0.22647 4.19062e-18 1.9975e-17 -0.000290841 2.08683e-14 -4.37801e-15 -2.96204e-28 0.001415 
4366 1 0.0434972 0.010956 0.0134895 0 0 0 -7.17009e-16 6.46794e-16 -0.22647 -1.13608e-17 1.02483e-17 -0.000290841 3.20563e-15 3.55363e-15 -8.63965e-29 0.001415 
1176 1 0.023371 0.01534 0.0144759 0 0 0 1.51204e-17 1.28121e-15 -0.22647 2.49596e-19 2.11493e-17 -0.000290841 1.54415e-14 -1.82235e-16 1.6279e-30 0.001415 
4344 1 0.0486622 0.0138541 0.0137825 0 0 0 -1.1259e-15 -3.95733e-16 -0.22647 -1.83907e-17 -6.46396e-18 -0.000290841 -3.7321e-15 1.06182e-14 5.1634e-28 0.001415 
5629 1 -0.00809486 0.0186934 0.0136558 0 0 0 1.04291e-15 1.82442e-17 -0.22647 1.38389e-17 2.42093e-19 -0.000290841 6.55582e-16 -3.74755e-14 1.08153e-28 0.001415 
9993 1 -0.0262716 0.020692 0.0137512 0 0 0 -7.17617e-16 -6.85538e-16 -0.22647 -1.22947e-17 -1.17451e-17 -0.000290841 -1.26083e-14 1.31983e-14 7.08476e-28 0.001415 
3553 1 0.038325 0.0241144 0.0137534 0 0 0 -1.69943e-16 9.94183e-16 -0.22647 -2.93539e-18 1.71723e-17 -0.000290841 1.43358e-14 2.45053e-15 2.24535e-28 0.001415 
2811 1 0.0616855 0.0236687 0.0133725 0 0 0 2.14295e-16 1.08732e-15 -0.22647 3.49195e-18 1.77178e-17 -0.000290841 3.87748e-15 -7.64198e-16 -2.11318e-28 0.001415 
4218 1 0.00694369 0.0277865 0.0131158 0 0 0 1.32436e-16 -9.78789e-16 -0.22647 6.66511e-19 -4.92594e-18 -0.000290841 -1.46614e-14 -1.98378e-15 1.23216e-28 0.001415 
9956 1 0.047731 0.0274693 0.013568 0 0 0 2.04801e-16 1.13742e-15 -0.22647 2.82242e-18 1.56751e-17 -0.000290841 1.3268e-14 -2.389e-15 -2.65468e-31 0.001415 
6007 1 0.0347873 0.0296881 0.0133378 0 0 0 3.26891e-16 3.66274e-16 -0.22647 5.4827e-18 6.14323e-18 -0.000290841 -1.58842e-15 1.41763e-15 5.24784e-29 0.001415 
8774 1 0.0137081 0.0323084 0.0140115 0 0 0 -2.12564e-16 3.57737e-16 -0.22647 -3.41695e-18 5.75061e-18 -0.000290841 -3.52113e-15 -2.09222e-15 -5.87721e-30 0.001415 
6214 1 -0.0224995 0.0352466 0.0144277 0 0 0 -2.40511e-16 -1.11827e-15 -0.22647 -4.142e-18 -1.92585e-17 -0.000290841 -2.53025e-14 5.44191e-15 6.71273e-28 0.001415 
7873 1 -0.0162209 0.0354611 0.0136612 0 0 0 4.67017e-16 5.52408e-16 -0.22647 7.4055e-18 8.75954e-18 -0.000290841 -5.76662e-15 4.87522e-15 2.55301e-28 0.001415 
6847 1 -0.0500743 0.0395872 0.0138178 0 0 0 -1.09916e-15 4.74093e-16 -0.22647 -1.44399e-17 6.22823e-18 -0.000290841 1.64304e-14 3.80932e-14 -1.66931e-27 0.001415 
487 1 0.0121003 0.044013 0.0142643 0 0 0 7.41223e-16 -6.2826e-16 -0.22647 1.29098e-17 -1.09424e-17 -0.000290841 -7.0005e-15 -8.25921e-15 8.15506e-29 0.001415 
9747 1 -0.0328934 0.0446643 0.0140345 0 0 0 1.90911e-16 -1.22954e-15 -0.22647 3.28276e-18 -2.11421e-17 -0.000290841 -1.57937e-14 -2.4523e-15 1.72019e-29 0.001415 
8988 1 0.0105277 0.0515901 0.0145218 0 0 0 4.36134e-16 -6.17013e-16 -0.22647 8.62063e-18 -1.21959e-17 -0.000290841 -2.39565e-14 -1.69336e-14 -7.8204e-30 0.001415 
8315 1 0.0261215 0.0546907 0.0142308 0 0 0 -1.20037e-15 4.96268e-16 -0.22647 -2.05181e-17 8.48274e-18 -0.000290841 6.60366e-15 1.59729e-14 3.19221e-28 0.001415 
6908 1 0.00786074 0.0601069 0.0148008 0 0 0 9.40574e-16 -5.66721e-16 -0.22647 1.64792e-17 -9.92919e-18 -0.000290841 -4.02125e-15 -6.67398e-15 8.60564e-28 0.001415 
6047 1 -2.16486e-05 0.0672713 0.0136435 0 0 0 -1.2002e-15 -7.21225e-17 -0.22647 -1.95196e-17 -1.17298e-18 -0.000290841 -6.46535e-16 1.07591e-14 6.80668e-29 0.001415 
7455 1 0.00864732 0.0657086 0.0137898 0 0 0 -5.17174e-17 1.22642e-15 -0.22647 -9.04892e-19 2.14586e-17 -0.000290841 8.21957e-15 3.46613e-16 -2.45671e-29 0.001415 
8757 1 0.00829498 0.0765507 0.0132363 0 0 0 0 0 -0.22647 0 0 -0.000290841 0 0 0 0.001415 
3316 1 0.00670592 -0.0734672 0.0155865 0 0 0 -1.05756e-15 3.38433e-16 -0.22647 1.01361e-17 -3.24369e-18 -0.000290841 -7.50886e-15 -2.34642e-14 -9.86704e-28 0.001415 
4538 1 0.0344028 -0.0660881 0.0164597 0 0 0 -3.78629e-16 7.37355e-16 -0.22647 -5.96006e-18 1.16068e-17 -0.000290841 3.89298e-15 1.99903e-15 2.02725e-28 0.001415 