ITEM: TIMESTEP
190000
ITEM: NUMBER OF ATOMS
10248
ITEM: BOX BOUNDS ff ff ff
-0.2 0.2
-0.2 0.2
-0.01 0.5
ITEM: ATOMS id type x y z ix iy iz vx vy vz fx fy fz omegax omegay omegaz radius 
168 1 0.0236897 -0.0375752 0.00142182 0 0 0 0.0326151 0.435331 0.00580708 -4.32877e-08 -5.77785e-07 -0.000291057 -307.742 23.0561 2.92774e-12 0.001415 
5124 1 -0.00943529 -0.0647942 0.00217491 0 0 0 -1.07552e-17 -3.78579e-18 -0.237253 1.01278e-23 3.56495e-24 -0.000290826 2.43527e-16 -6.91845e-16 1.49144e-32 0.001415 
9891 1 -0.0536741 -0.00562861 0.00205938 0 0 0 7.12598e-18 -8.90024e-18 -0.237253 -6.71029e-24 8.38105e-24 -0.000290826 6.62901e-16 5.30752e-16 -2.89608e-31 0.001415 
8778 1 0.0127785 0.033873 0.00258369 0 0 0 -4.29718e-18 7.232e-18 -0.237253 4.04651e-24 -6.81013e-24 -0.000290826 -4.439e-16 -2.63761e-16 3.68602e-31 0.001415 
5123 1 -0.00890863 -0.0646088 0.00494929 0 0 0 9.81886e-18 3.45621e-18 -0.237253 -9.24608e-24 -3.25459e-24 -0.000290826 2.42078e-16 -6.87727e-16 1.77185e-32 0.001415 
167 1 0.0236419 -0.0382134 0.00420476 0 0 0 0.0225721 0.301282 0.0130124 -2.41e-08 -3.21676e-07 -0.000291063 400.67 -30.0183 1.61877e-11 0.001415 
5439 1 0.0255064 -0.015295 0.00445226 0 0 0 6.69715e-19 -1.27256e-18 -0.237253 -6.30648e-25 1.19833e-24 -0.000290826 -5.23864e-18 -2.75696e-18 2.2208e-33 0.001415 
9890 1 -0.0540531 -0.00515523 0.00482365 0 0 0 -6.21401e-18 7.7612e-18 -0.237253 5.85152e-24 -7.30846e-24 -0.000290826 6.56895e-16 5.25943e-16 -2.89929e-31 0.001415 
4096 1 0.0493328 0.0413049 0.00400427 0 0 0 1.67009e-17 -5.67866e-18 -0.237253 1.17339e-19 -3.98978e-20 -0.000290826 -8.69881e-16 -2.55831e-15 4.67696e-30 0.001415 
4641 1 -0.00200478 0.0474767 0.00468146 0 0 0 -2.10632e-18 1.13416e-18 -0.237253 1.98345e-24 -1.068e-24 -0.000290826 5.34818e-18 9.93243e-18 -2.46514e-33 0.001415 
166 1 0.023569 -0.0391861 0.00690538 0 0 0 -0.0114052 -0.152231 -0.0628206 9.14772e-09 1.221e-07 -0.000290999 -76.3153 5.71755 -1.31803e-11 0.001415 
8779 1 0.0136066 -0.0379801 0.00557305 0 0 0 2.27091e-19 1.03598e-19 -0.237253 -2.13844e-25 -9.75545e-26 -0.000290826 1.55088e-18 -3.39961e-18 2.49954e-32 0.001415 
6552 1 -0.00600865 -0.0297033 0.00618981 0 0 0 9.24449e-19 -1.49831e-19 -0.237253 -8.70522e-25 1.41091e-25 -0.000290826 -1.49625e-19 -9.23173e-19 -2.17647e-33 0.001415 
1407 1 0.0135434 -0.0200891 0.00688115 0 0 0 -8.6201e-19 -2.52183e-19 -0.237253 8.11726e-25 2.37472e-25 -0.000290826 -5.83718e-19 1.99526e-18 9.84937e-36 0.001415 
4516 1 0.00201022 -0.00437069 0.00560974 0 0 0 -1.24697e-18 1.48863e-18 -0.237253 1.17422e-24 -1.40179e-24 -0.000290826 5.59512e-18 4.68682e-18 -2.89598e-32 0.001415 
5818 1 0.0744051 0.00953964 0.00511919 0 0 0 2.36851e-19 -2.27653e-19 -0.237253 -2.23034e-25 2.14373e-25 -0.000290826 -2.53163e-19 -2.63391e-19 -1.71769e-34 0.001415 
6447 1 -0.0515136 0.0117203 0.00543212 0 0 0 -1.27929e-18 1.55847e-18 -0.237253 1.20466e-24 -1.46756e-24 -0.000290826 3.38243e-18 2.7765e-18 -3.23427e-32 0.001415 
4347 1 0.0446345 0.0124385 0.0061889 0 0 0 -9.14467e-19 -3.21417e-19 -0.237253 8.61123e-25 3.02668e-25 -0.000290826 8.33347e-19 -2.37096e-18 -1.24875e-32 0.001415 
9996 1 -0.0293411 0.0177597 0.00614355 0 0 0 -1.98982e-18 -1.90087e-18 -0.237253 1.87375e-24 1.78999e-24 -0.000290826 -9.26995e-18 9.70374e-18 1.08544e-32 0.001415 
1281 1 -0.00910888 0.0220965 0.00655814 0 0 0 -8.68969e-19 -3.21892e-19 -0.237253 8.18279e-25 3.03115e-25 -0.000290826 -1.07237e-18 2.89494e-18 -1.24272e-33 0.001415 
4221 1 0.00751144 0.0235905 0.00550199 0 0 0 5.01582e-20 -3.70701e-19 -0.237253 -4.72323e-26 3.49077e-25 -0.000290826 3.31771e-18 4.48907e-19 -1.15648e-32 0.001415 
3550 1 0.0375782 0.0284832 0.00625705 0 0 0 -1.26245e-18 7.38543e-18 -0.237253 1.1888e-24 -6.95461e-24 -0.000290826 8.6197e-17 1.47343e-17 -2.39916e-32 0.001415 
2814 1 0.0624335 0.0274639 0.00555991 0 0 0 1.78696e-19 9.06689e-19 -0.237253 -1.68272e-25 -8.53798e-25 -0.000290826 -1.67112e-18 3.29355e-19 1.11998e-32 0.001415 
8777 1 0.0130109 0.0334818 0.00537688 0 0 0 4.05372e-18 -6.82226e-18 -0.237253 -3.81725e-24 6.42429e-24 -0.000290826 -4.42198e-16 -2.62749e-16 3.6819e-31 0.001415 
484 1 0.0153265 0.0412785 0.00664756 0 0 0 3.2106e-18 -2.7213e-18 -0.237253 -3.02332e-24 2.56256e-24 -0.000290826 -1.73282e-17 -2.04438e-17 1.3331e-32 0.001415 
4097 1 0.0483957 0.0416236 0.00665555 0 0 0 -1.50189e-17 5.10676e-18 -0.237253 -1.1734e-19 3.98983e-20 -0.000290826 -8.68487e-16 -2.55421e-15 4.65678e-30 0.001415 
7350 1 0.0388042 0.0484249 0.00688862 0 0 0 -8.37051e-21 -1.41553e-19 -0.237253 7.88223e-27 1.33296e-25 -0.000290826 -2.91743e-18 1.72518e-19 1.45393e-33 0.001415 
5122 1 -0.00838197 -0.0644234 0.00772367 0 0 0 -9.41232e-17 -3.31311e-17 -0.237253 -3.73691e-18 -1.31538e-18 -0.000290826 -2.77039e-16 7.87049e-16 -2.43751e-29 0.001415 
9219 1 -0.0350531 -0.0474779 0.00844728 0 0 0 0 0 -0.237253 0 0 -0.000290826 0 0 0 0.001415 
8295 1 0.0424827 -0.0477148 0.008715 0 0 0 0 0 -0.237253 0 0 -0.000290826 0 0 0 0.001415 
8780 1 0.0123897 -0.0385353 0.008067 0 0 0 3.73158e-17 1.70233e-17 -0.237253 2.81384e-19 1.28366e-19 -0.000290826 -3.05732e-15 6.7018e-15 -1.28464e-29 0.001415 
8589 1 -0.0402517 -0.0187189 0.00698811 0 0 0 7.32391e-20 -9.67221e-19 -0.237253 -6.89668e-26 9.10799e-25 -0.000290826 -4.5128e-18 -3.41715e-19 -1.37895e-31 0.001415 
5438 1 0.0249608 -0.0142584 0.00702844 0 0 0 4.07921e-16 -7.75111e-16 -0.237253 1.06112e-17 -2.01628e-17 -0.000290826 -1.83351e-14 -9.64927e-15 -1.37709e-28 0.001415 
2100 1 -0.012979 -0.0106864 0.00709576 0 0 0 9.59251e-16 1.74046e-16 -0.237253 2.61133e-17 4.73798e-18 -0.000290826 4.91917e-16 -2.7112e-15 1.89837e-28 0.001415 
9889 1 -0.0544321 -0.00468185 0.00758791 0 0 0 1.13463e-16 -1.41713e-16 -0.237253 5.00124e-18 -6.24647e-18 -0.000290826 -2.78013e-15 -2.22591e-15 2.82188e-31 0.001415 
4517 1 0.00302288 -0.0055796 0.00795962 0 0 0 1.24697e-18 -1.48863e-18 -0.237253 -1.17422e-24 1.40179e-24 -0.000290826 5.59512e-18 4.68682e-18 -2.89598e-32 0.001415 
7477 1 0.00556963 0.00632744 0.00782852 0 0 0 0 0 -0.237253 0 0 -0.000290826 0 0 0 0.001415 
6446 1 -0.0505093 0.0104969 0.00777808 0 0 0 -4.25471e-18 5.18324e-18 -0.237253 4.00652e-24 -4.88088e-24 -0.000290826 1.6295e-16 1.33759e-16 2.88512e-30 0.001415 
5819 1 0.0733204 0.0105822 0.00751613 0 0 0 1.43832e-16 -1.38246e-16 -0.237253 5.54713e-18 -5.33171e-18 -0.000290826 -1.50378e-16 -1.56453e-16 2.33393e-29 0.001415 
4368 1 0.0417993 0.0124877 0.00805693 0 0 0 0 0 -0.237253 0 0 -0.000290826 0 0 0 0.001415 
4346 1 0.0459771 0.0129104 0.00863507 0 0 0 -1.3915e-17 -4.89085e-18 -0.237253 -1.17938e-19 -4.1453e-20 -0.000290826 -5.37141e-16 1.52822e-15 1.31696e-32 0.001415 
9995 1 -0.0283179 0.0187371 0.00859441 0 0 0 1.98982e-18 1.90087e-18 -0.237253 -1.87375e-24 -1.78999e-24 -0.000290826 -9.26995e-18 9.70374e-18 1.08544e-32 0.001415 
4220 1 0.00732219 0.0249892 0.0079549 0 0 0 2.22055e-18 -1.64113e-17 -0.237253 1.89353e-20 -1.39944e-19 -0.000290826 -2.63044e-15 -3.55915e-16 5.34939e-31 0.001415 
2813 1 0.0621842 0.0261988 0.00807909 0 0 0 2.08205e-18 1.05642e-17 -0.237253 2.08783e-20 1.05935e-19 -0.000290826 2.4472e-15 -4.82309e-16 1.28934e-30 0.001415 
3551 1 0.0378271 0.027027 0.0086708 0 0 0 1.26245e-18 -7.38543e-18 -0.237253 -1.1888e-24 6.95461e-24 -0.000290826 8.6197e-17 1.47343e-17 -2.39916e-32 0.001415 
8776 1 0.0132433 0.0330907 0.00817007 0 0 0 -1.15715e-18 1.94744e-18 -0.237253 -1.38015e-20 2.32274e-20 -0.000290826 6.67965e-16 3.96898e-16 1.00568e-30 0.001415 
3969 1 -0.0266131 0.0377733 0.00757538 0 0 0 -1.00274e-16 3.13705e-16 -0.237253 -3.65557e-18 1.14363e-17 -0.000290826 -6.55841e-15 -2.09637e-15 1.53868e-29 0.001415 
7875 1 -0.0151895 0.0366812 0.00797631 0 0 0 5.75226e-18 6.80403e-18 -0.237253 4.87407e-20 5.76526e-20 -0.000290826 1.19462e-15 -1.00995e-15 3.70173e-30 0.001415 
4640 1 -0.000842548 0.0468509 0.00718476 0 0 0 -9.9811e-16 5.37439e-16 -0.237253 -2.43912e-17 1.31336e-17 -0.000290826 4.29665e-15 7.97957e-15 -3.05411e-28 0.001415 
5121 1 -0.0078553 -0.064238 0.010498 0 0 0 5.84632e-17 2.05789e-17 -0.237253 3.15347e-18 1.11001e-18 -0.000290826 -7.45129e-16 2.11686e-15 2.04886e-28 0.001415 
6406 1 -0.013834 -0.0547628 0.0093754 0 0 0 2.08243e-17 -6.0711e-18 -0.237253 1.48353e-19 -4.32507e-20 -0.000290826 -6.95898e-16 -2.38698e-15 1.00769e-29 0.001415 
4747 1 -0.048396 -0.0516837 0.0101642 0 0 0 -6.24392e-17 9.12933e-18 -0.237253 -4.5391e-19 6.63669e-20 -0.000290826 1.36941e-16 9.36598e-16 2.16854e-30 0.001415 
8904 1 0.00698378 -0.051284 0.00968355 0 0 0 0 0 -0.237253 0 0 -0.000290826 0 0 0 0.001415 
9218 1 -0.0344149 -0.0491301 0.0106545 0 0 0 -1.71101e-17 4.42889e-17 -0.237253 -2.10968e-19 5.46085e-19 -0.000290826 -9.92085e-15 -3.83271e-15 -7.3759e-29 0.001415 
8781 1 0.0111727 -0.0390904 0.0105609 0 0 0 -7.91315e-18 -3.60993e-18 -0.237253 4.05609e-19 1.85037e-19 -0.000290826 -5.32798e-15 1.16792e-14 -1.1942e-29 0.001415 
165 1 0.0235412 -0.0395575 0.00973082 0 0 0 -0.00268464 -0.0358333 -0.0181404 1.50507e-09 2.0089e-08 -0.000291039 -10.1223 0.758361 -1.93317e-11 0.001415 
6551 1 -0.00658842 -0.0296093 0.00895819 0 0 0 5.37849e-18 -8.71726e-19 -0.237253 4.46905e-20 -7.24328e-21 -0.000290826 -1.42398e-16 -8.78585e-16 2.8306e-31 0.001415 
9787 1 -0.0202299 -0.023698 0.00977335 0 0 0 -9.35013e-18 -1.16266e-17 -0.237253 -8.09025e-20 -1.006e-19 -0.000290826 -6.3e-16 5.06647e-16 -3.74414e-29 0.001415 
1406 1 0.0148736 -0.0197 0.00934856 0 0 0 8.6201e-19 2.52183e-19 -0.237253 -8.11726e-25 -2.37472e-25 -0.000290826 -5.83718e-19 1.99526e-18 9.84937e-36 0.001415 
8588 1 -0.0403296 -0.0176897 0.00962318 0 0 0 9.55616e-18 -1.26202e-16 -0.237253 1.12752e-19 -1.48904e-18 -0.000290826 2.13041e-14 1.61317e-15 1.534e-28 0.001415 
4389 1 -0.00210167 -0.0164576 0.0107576 0 0 0 2.41062e-17 -1.17515e-17 -0.237253 3.9165e-19 -1.90925e-19 -0.000290826 4.92747e-17 1.01079e-16 -4.18878e-29 0.001415 
8820 1 0.00980992 -0.0172644 0.00995097 0 0 0 0 0 -0.237253 0 0 -0.000290826 0 0 0 0.001415 
3529 1 0.0670132 -0.0166749 0.010251 0 0 0 0 0 -0.237253 0 0 -0.000290826 0 0 0 0.001415 
4473 1 -0.0215554 -0.0144106 0.00972765 0 0 0 0 0 -0.237253 0 0 -0.000290826 0 0 0 0.001415 
5437 1 0.0244153 -0.0132218 0.00960462 0 0 0 -3.78118e-16 7.18481e-16 -0.237253 -1.0048e-17 1.90927e-17 -0.000290826 -1.03834e-14 -5.46451e-15 1.08332e-29 0.001415 
2099 1 -0.0146787 -0.0109948 0.00933733 0 0 0 -9.2644e-16 -1.68092e-16 -0.237253 -2.52329e-17 -4.57823e-18 -0.000290826 6.54026e-16 -3.60465e-15 1.21298e-28 0.001415 
4518 1 0.00403554 -0.00678852 0.0103095 0 0 0 -4.51819e-17 5.3938e-17 -0.237253 -5.25339e-19 6.27149e-19 -0.000290826 -1.83439e-14 -1.5366e-14 -5.48284e-28 0.001415 
9888 1 -0.0548111 -0.00420847 0.0103522 0 0 0 -9.26901e-17 1.15768e-16 -0.237253 -4.60954e-18 5.75724e-18 -0.000290826 -2.22963e-15 -1.78516e-15 6.21084e-29 0.001415 
3528 1 0.0516347 -0.000942708 0.0090396 0 0 0 -2.31967e-17 -1.05498e-17 -0.237253 -1.64214e-19 -7.46846e-20 -0.000290826 -1.39311e-15 3.06312e-15 -1.46337e-29 0.001415 
2457 1 0.0227749 0.00368251 0.00936259 0 0 0 0 0 -0.237253 0 0 -0.000290826 0 0 0 0.001415 
1470 1 -0.0541433 0.00552442 0.0105997 0 0 0 5.38e-17 5.18445e-17 -0.237253 6.31131e-19 6.08192e-19 -0.000290826 -1.99051e-14 2.06559e-14 -1.72203e-28 0.001415 
7478 1 0.0063252 0.00556124 0.010446 0 0 0 -1.69611e-17 1.71996e-17 -0.237253 -3.90101e-19 3.95586e-19 -0.000290826 -4.96574e-16 -4.89688e-16 -1.52475e-28 0.001415 
5545 1 -0.0302182 0.00727945 0.0107401 0 0 0 0 0 -0.237253 0 0 -0.000290826 0 0 0 0.001415 
6445 1 -0.0495051 0.00927345 0.010124 0 0 0 -7.41111e-19 9.02847e-19 -0.237253 -6.21515e-20 7.57151e-20 -0.000290826 1.39045e-15 1.14136e-15 1.29121e-29 0.001415 
4431 1 -0.0620527 0.012605 0.0101186 0 0 0 -7.14643e-17 1.52664e-17 -0.237253 -8.0674e-19 1.72338e-19 -0.000290826 -4.22832e-15 -1.97934e-14 4.19806e-29 0.001415 
4367 1 0.0426483 0.0117219 0.0106457 0 0 0 -4.61165e-17 4.16004e-17 -0.237253 -6.8786e-19 6.205e-19 -0.000290826 -4.78785e-15 -5.30761e-15 -2.60023e-28 0.001415 
5820 1 0.0722357 0.0116248 0.00991307 0 0 0 -1.31752e-16 1.26636e-16 -0.237253 -5.37284e-18 5.16419e-18 -0.000290826 -1.7004e-15 -1.7691e-15 -3.7965e-30 0.001415 
1280 1 -0.00826091 0.0224106 0.00923978 0 0 0 8.68969e-19 3.21892e-19 -0.237253 -8.18279e-25 -3.03115e-25 -0.000290826 -1.07237e-18 2.89494e-18 -1.24272e-33 0.001415 
2812 1 0.0619348 0.0249338 0.0105983 0 0 0 1.28342e-17 6.51198e-17 -0.237253 2.01024e-19 1.01998e-18 -0.000290826 -7.69622e-15 1.51682e-15 8.31266e-30 0.001415 
4219 1 0.00713294 0.0263879 0.0104078 0 0 0 8.29388e-18 -6.12971e-17 -0.237253 1.31437e-19 -9.71405e-19 -0.000290826 1.52354e-14 2.06145e-15 2.03418e-28 0.001415 
6216 1 -0.023401 0.0310553 0.0104772 0 0 0 -3.66738e-18 -1.70517e-17 -0.237253 -2.86272e-20 -1.33104e-19 -0.000290826 -1.63277e-15 3.51167e-16 4.85195e-30 0.001415 
3968 1 -0.0261983 0.0364757 0.0100559 0 0 0 1.00274e-16 -3.13705e-16 -0.237253 3.65557e-18 -1.14363e-17 -0.000290826 -6.55841e-15 -2.09637e-15 1.53868e-29 0.001415 
7874 1 -0.0157052 0.0360712 0.0106912 0 0 0 9.57882e-18 1.13302e-17 -0.237253 3.00879e-19 3.55892e-19 -0.000290826 1.19879e-15 -1.01348e-15 -1.69252e-28 0.001415 
9745 1 -0.0323504 0.0411674 0.00936222 0 0 0 0 0 -0.237253 0 0 -0.000290826 0 0 0 0.001415 
485 1 0.0142511 0.04219 0.00910145 0 0 0 -3.2106e-18 2.7213e-18 -0.237253 3.02332e-24 -2.56256e-24 -0.000290826 -1.73282e-17 -2.04438e-17 1.3331e-32 0.001415 
4098 1 0.0474587 0.0419422 0.00930684 0 0 0 3.37951e-18 -1.14911e-18 -0.237253 4.53586e-20 -1.54229e-20 -0.000290826 -2.9712e-17 -8.73826e-17 8.97792e-31 0.001415 
4639 1 0.000319678 0.0462251 0.00968805 0 0 0 9.53095e-16 -5.132e-16 -0.237253 2.33713e-17 -1.25844e-17 -0.000290826 5.92815e-15 1.10095e-14 -1.90767e-28 0.001415 
7349 1 0.0388392 0.0490157 0.00965605 0 0 0 -2.35291e-18 -3.97899e-17 -0.237253 -3.41354e-20 -5.77261e-19 -0.000290826 4.48274e-15 -2.6508e-16 -3.11246e-29 0.001415 
3318 1 0.0108764 -0.0748018 0.0117452 0 0 0 0 0 -0.237253 0 0 -0.000290826 0 0 0 0.001415 
6407 1 -0.0157638 -0.0542001 0.0113674 0 0 0 -2.08243e-17 6.0711e-18 -0.237253 -1.48353e-19 4.32507e-20 -0.000290826 -6.95898e-16 -2.38698e-15 1.00769e-29 0.001415 
4748 1 -0.0463698 -0.05198 0.0121176 0 0 0 -4.61745e-18 6.75124e-19 -0.237253 -4.19875e-19 6.13905e-20 -0.000290826 -4.85545e-15 -3.32084e-14 1.17673e-28 0.001415 
8903 1 0.00719176 -0.0530399 0.0118932 0 0 0 -7.85814e-18 6.6342e-17 -0.237253 -1.0637e-19 8.98024e-19 -0.000290826 -1.87783e-14 -2.22427e-15 1.46982e-28 0.001415 
8421 1 -0.0125515 -0.050364 0.0115707 0 0 0 8.86724e-18 -2.36773e-17 -0.237253 2.06883e-19 -5.52419e-19 -0.000290826 3.27012e-15 1.22467e-15 -6.03681e-28 0.001415 
5040 1 0.0412118 -0.051077 0.0111478 0 0 0 0 0 -0.237253 0 0 -0.000290826 0 0 0 0.001415 
8294 1 0.0417911 -0.0460756 0.0109158 0 0 0 0 0 -0.237253 0 0 -0.000290826 0 0 0 0.001415 
164 1 0.023504 -0.0400543 0.0125323 0 0 0 -0.00275485 -0.0367705 0.00305895 1.5271e-09 2.03831e-08 -0.000291051 8.21614 -0.615555 -1.82196e-11 0.001415 
7141 1 -0.0440609 -0.0300013 0.0121083 0 0 0 0 0 -0.237253 0 0 -0.000290826 0 0 0 0.001415 
6550 1 -0.00716818 -0.0295154 0.0117266 0 0 0 -6.30294e-18 1.02156e-18 -0.237253 -4.46896e-20 7.24313e-21 -0.000290826 -1.42248e-16 -8.77662e-16 2.85237e-31 0.001415 
9788 1 -0.0191042 -0.0222982 0.0119602 0 0 0 -3.64777e-17 -4.53589e-17 -0.237253 -6.81995e-19 -8.48039e-19 -0.000290826 1.61007e-14 -1.29482e-14 7.95142e-28 0.001415 
1405 1 0.0162037 -0.0193109 0.011816 0 0 0 -9.61607e-17 -2.8132e-17 -0.237253 -1.30038e-18 -3.80429e-19 -0.000290826 5.51062e-15 -1.88364e-14 -5.20091e-28 0.001415 
8819 1 0.00974619 -0.0192248 0.011991 0 0 0 3.33129e-18 1.0246e-16 -0.237253 3.98541e-20 1.22579e-18 -0.000290826 -2.17104e-14 7.05871e-16 -1.76458e-28 0.001415 
8587 1 -0.0404076 -0.0166605 0.0122582 0 0 0 6.00235e-17 -7.92691e-16 -0.237253 2.91932e-19 -3.85536e-18 -0.000290826 -8.00804e-15 -6.06378e-16 -5.28166e-29 0.001415 
4472 1 -0.0211077 -0.0159411 0.0120656 0 0 0 -3.45672e-17 1.18161e-16 -0.237253 -3.85148e-19 1.31655e-18 -0.000290826 -2.85356e-14 -8.34792e-15 -4.39295e-28 0.001415 
5436 1 0.0238697 -0.0121851 0.0121808 0 0 0 4.61076e-18 -8.76113e-18 -0.237253 -7.0577e-20 1.34107e-19 -0.000290826 1.3771e-14 7.24735e-15 2.07933e-28 0.001415 
2098 1 -0.0163785 -0.0113032 0.0115789 0 0 0 -3.28117e-17 -5.95333e-18 -0.237253 -8.80448e-19 -1.59748e-19 -0.000290826 1.62108e-16 -8.93457e-16 -6.85398e-29 0.001415 
4519 1 0.0050482 -0.00799743 0.0126594 0 0 0 -5.34885e-16 6.38545e-16 -0.237253 -3.17107e-18 3.78562e-18 -0.000290826 2.09595e-15 1.7557e-15 1.05255e-27 0.001415 
3527 1 0.053278 -0.000195356 0.0112191 0 0 0 2.31967e-17 1.05498e-17 -0.237253 1.64214e-19 7.46846e-20 -0.000290826 -1.39311e-15 3.06312e-15 -1.46337e-29 0.001415 
4852 1 -0.0576017 0.00160357 0.01198 0 0 0 3.46323e-17 5.68244e-17 -0.237253 4.63784e-19 7.60972e-19 -0.000290826 -1.16472e-14 7.09852e-15 4.74698e-28 0.001415 
2456 1 0.0231999 0.00341526 0.0121477 0 0 0 -3.30009e-16 2.07534e-16 -0.237253 -1.78404e-18 1.12194e-18 -0.000290826 3.40771e-15 5.41875e-15 -1.8446e-28 0.001415 
6444 1 -0.0485008 0.00805 0.01247 0 0 0 -5.3258e-17 6.48807e-17 -0.237253 -7.90782e-19 9.63358e-19 -0.000290826 -1.61535e-14 -1.32597e-14 -1.3129e-27 0.001415 
7897 1 0.0202104 0.0106666 0.0123228 0 0 0 1.77591e-17 8.46506e-17 -0.237253 2.23949e-19 1.06747e-18 -0.000290826 -2.61635e-14 5.48892e-15 7.25318e-29 0.001415 
4430 1 -0.0607358 0.0123237 0.0126077 0 0 0 -7.89321e-16 1.68617e-16 -0.237253 -4.21938e-18 9.01354e-19 -0.000290826 1.15334e-15 5.39899e-15 -7.9235e-29 0.001415 
4345 1 0.0473197 0.0133822 0.0110812 0 0 0 -1.57535e-17 -5.53705e-18 -0.237253 -5.94567e-19 -2.08979e-19 -0.000290826 1.57761e-15 -4.48848e-15 -1.75672e-28 0.001415 
5821 1 0.071151 0.0126674 0.01231 0 0 0 -1.23162e-17 1.18379e-17 -0.237253 -1.74289e-19 1.6752e-19 -0.000290826 -1.55028e-15 -1.61291e-15 -2.71359e-29 0.001415 
9994 1 -0.0272948 0.0197145 0.0110453 0 0 0 -6.9913e-17 -6.67876e-17 -0.237253 -9.44907e-19 -9.02667e-19 -0.000290826 1.47088e-14 -1.53971e-14 -7.97852e-29 0.001415 
1279 1 -0.00741294 0.0227247 0.0119214 0 0 0 -7.27186e-17 -2.69371e-17 -0.237253 -8.99972e-19 -3.33376e-19 -0.000290826 6.3065e-16 -1.70248e-15 -1.11109e-28 0.001415 
3552 1 0.038076 0.0255707 0.0110846 0 0 0 -8.38583e-18 4.90579e-17 -0.237253 -1.37494e-19 8.04351e-19 -0.000290826 -1.17954e-14 -2.01627e-15 2.33662e-28 0.001415 
9955 1 0.0480973 0.0295036 0.0113799 0 0 0 0 0 -0.237253 0 0 -0.000290826 0 0 0 0.001415 
6215 1 -0.0229502 0.0331509 0.012325 0 0 0 -7.96845e-18 -3.70498e-17 -0.237253 -1.33286e-19 -6.1972e-19 -0.000290826 2.58056e-14 -5.55012e-15 -2.16989e-28 0.001415 
8775 1 0.0134757 0.0326995 0.0109633 0 0 0 -9.0873e-18 1.52936e-17 -0.237253 -1.56699e-19 2.63718e-19 -0.000290826 2.85277e-16 1.69509e-16 1.12208e-29 0.001415 
3967 1 -0.0257836 0.0351781 0.0125365 0 0 0 -2.85629e-16 8.93581e-16 -0.237253 -1.60335e-18 5.01604e-18 -0.000290826 1.19036e-14 3.80495e-15 -6.25941e-28 0.001415 
4099 1 0.0465216 0.0422608 0.0119581 0 0 0 1.26686e-17 -4.30761e-18 -0.237253 3.63327e-19 -1.23539e-19 -0.000290826 -2.40809e-16 -7.08215e-16 -1.61047e-28 0.001415 
9746 1 -0.0326219 0.0429159 0.0115709 0 0 0 1.17394e-17 -7.56056e-17 -0.237253 1.54586e-19 -9.95592e-19 -0.000290826 2.05837e-14 3.19604e-15 -2.42489e-28 0.001415 
486 1 0.0131757 0.0431015 0.0115553 0 0 0 8.58308e-17 -7.27501e-17 -0.237253 1.03217e-18 -8.74863e-19 -0.000290826 1.83572e-14 2.16579e-14 -2.22443e-28 0.001415 
4638 1 0.00148191 0.0455993 0.0121913 0 0 0 8.22519e-19 -4.4289e-19 -0.237253 2.34685e-19 -1.26368e-19 -0.000290826 -3.45838e-15 -6.42277e-15 5.54754e-28 0.001415 
7348 1 0.0388741 0.0496065 0.0124235 0 0 0 -3.47215e-17 -5.87173e-16 -0.237253 -1.94287e-19 -3.28557e-18 -0.000290826 5.14608e-15 -3.04305e-16 1.15406e-29 0.001415 
8316 1 0.0241447 0.055508 0.0121229 0 0 0 0 0 -0.237253 0 0 -0.000290826 0 0 0 0.001415 
4831 1 0.0293284 0.0560787 0.0125923 0 0 0 8.99879e-16 -5.00235e-16 -0.237253 5.42373e-18 -3.01501e-18 -0.000290826 -1.76633e-14 -3.17747e-14 -9.56886e-28 0.001415 
6909 1 0.00964204 0.0590336 0.0126264 0 0 0 1.80393e-16 -1.08692e-16 -0.237253 1.80174e-18 -1.0856e-18 -0.000290826 2.99168e-14 4.96523e-14 -1.0307e-27 0.001415 
6048 1 -0.0014895 0.0671831 0.0109705 0 0 0 -8.22794e-17 -4.94435e-18 -0.237253 -1.18276e-18 -7.10747e-20 -0.000290826 9.43043e-16 -1.56933e-14 -8.93469e-29 0.001415 
3317 1 0.00879117 -0.0741345 0.0135383 0 0 0 1.22886e-15 -3.93253e-16 -0.237253 2.59665e-18 -8.30966e-19 -0.000290826 -1.71959e-14 -5.37349e-14 -1.61321e-27 0.001415 
4537 1 0.0348065 -0.0668743 0.0135162 0 0 0 4.5667e-16 -8.89335e-16 -0.237253 -4.30031e-22 8.37456e-22 -0.000290826 9.4421e-15 4.84849e-15 -4.63259e-29 0.001415 
5120 1 -0.00732864 -0.0640527 0.0132724 0 0 0 -5.40249e-16 -1.90166e-16 -0.237253 5.83985e-19 2.05561e-19 -0.000290826 2.45193e-15 -6.96578e-15 2.77549e-28 0.001415 
8902 1 0.00739974 -0.0547957 0.0141029 0 0 0 -1.72203e-16 1.45382e-15 -0.237253 1.06539e-19 -8.99455e-19 -0.000290826 1.82243e-14 2.15864e-15 1.74431e-29 0.001415 
4749 1 -0.0443437 -0.0522762 0.014071 0 0 0 -1.1179e-15 1.6345e-16 -0.237253 8.74901e-19 -1.27921e-19 -0.000290826 4.18114e-15 2.85965e-14 -9.92819e-29 0.001415 
6408 1 -0.0176936 -0.0536375 0.0133595 0 0 0 2.32317e-15 -6.77295e-16 -0.237253 2.48252e-17 -7.2375e-18 -0.000290826 -2.07206e-14 -7.10732e-14 -1.86753e-27 0.001415 
9217 1 -0.0337766 -0.0507822 0.0128618 0 0 0 -3.30975e-16 8.5672e-16 -0.237253 -1.71965e-18 4.45126e-18 -0.000290826 3.7708e-15 1.45677e-15 1.11874e-27 0.001415 
5039 1 0.0393096 -0.0515993 0.013177 0 0 0 1.52799e-15 4.19557e-16 -0.237253 1.15055e-17 3.15919e-18 -0.000290826 1.07735e-14 -3.92364e-14 2.09801e-27 0.001415 
8420 1 -0.0130316 -0.0490822 0.0140476 0 0 0 4.72218e-16 -1.26092e-15 -0.237253 -2.07336e-19 5.53629e-19 -0.000290826 -1.2209e-14 -4.5723e-15 1.55342e-27 0.001415 
8293 1 0.0410995 -0.0444363 0.0131166 0 0 0 6.30487e-16 -1.49437e-15 -0.237253 3.21925e-18 -7.63022e-18 -0.000290826 -7.54033e-14 -3.18133e-14 1.26123e-28 0.001415 
8782 1 0.00995582 -0.0396456 0.0130549 0 0 0 1.07389e-15 4.89904e-16 -0.237253 -6.88032e-19 -3.13876e-19 -0.000290826 1.27671e-14 -2.79862e-14 -1.1051e-27 0.001415 
1765 1 -0.00582286 -0.0341936 0.0138097 0 0 0 1.27233e-15 -3.98161e-16 -0.237253 -1.19811e-21 3.74935e-22 -0.000290826 -1.59991e-14 -5.11254e-14 4.64349e-28 0.001415 
7142 1 -0.0430179 -0.0310366 0.0145268 0 0 0 -9.67354e-16 9.60195e-16 -0.237253 9.10925e-22 -9.04183e-22 -0.000290826 2.6095e-14 2.62896e-14 -1.61904e-28 0.001415 
6549 1 -0.00774795 -0.0294214 0.014495 0 0 0 6.58268e-16 -1.0669e-16 -0.237253 -6.19869e-22 1.00466e-22 -0.000290826 9.09311e-16 5.61038e-15 9.47491e-29 0.001415 
2898 1 -0.0015393 -0.0260351 0.0140819 0 0 0 8.47864e-16 -1.67376e-16 -0.237253 -7.98404e-22 1.57613e-22 -0.000290826 -5.03199e-16 -2.54901e-15 -8.95353e-29 0.001415 
1113 1 0.057839 -0.0250229 0.0129385 0 0 0 1.53711e-15 7.88606e-16 -0.237253 1.20238e-17 6.16873e-18 -0.000290826 1.37022e-14 -2.67075e-14 4.24615e-28 0.001415 
2604 1 -0.0264828 -0.0239558 0.0138064 0 0 0 1.63453e-15 -7.11666e-17 -0.237253 1.40061e-17 -6.09817e-19 -0.000290826 -2.99235e-15 -6.87274e-14 -2.0896e-28 0.001415 
7959 1 -0.0480224 -0.0227988 0.0144885 0 0 0 -1.34109e-15 8.36473e-16 -0.237253 1.26286e-21 -7.87678e-22 -0.000290826 2.46529e-14 3.95253e-14 2.38031e-27 0.001415 
8818 1 0.00968245 -0.0211851 0.0140311 0 0 0 4.44244e-17 1.36635e-15 -0.237253 -3.98991e-20 -1.22717e-18 -0.000290826 1.32096e-14 -4.29483e-16 -6.06883e-29 0.001415 
9789 1 -0.0179785 -0.0208985 0.0141471 0 0 0 -9.97474e-16 -1.24033e-15 -0.237253 7.6388e-19 9.49861e-19 -0.000290826 -2.61761e-14 2.10509e-14 -2.55328e-28 0.001415 
4471 1 -0.0206599 -0.0174716 0.0144035 0 0 0 -3.32894e-16 1.13793e-15 -0.237253 3.85494e-19 -1.31773e-18 -0.000290826 6.30089e-15 1.84329e-15 -1.3183e-28 0.001415 
1404 1 0.0175339 -0.0189217 0.0142834 0 0 0 -1.18525e-15 -3.46747e-16 -0.237253 1.30159e-18 3.80782e-19 -0.000290826 -2.47569e-15 8.4624e-15 7.06895e-28 0.001415 
3530 1 0.0663652 -0.0174708 0.0128883 0 0 0 8.19806e-16 1.00688e-15 -0.237253 2.04064e-18 2.50631e-18 -0.000290826 7.03146e-15 -5.72502e-15 -5.33101e-28 0.001415 
4388 1 -0.00265555 -0.0161876 0.0135197 0 0 0 5.60512e-16 -2.73243e-16 -0.237253 -3.92201e-19 1.91193e-19 -0.000290826 2.21382e-15 4.54128e-15 1.14912e-29 0.001415 
2097 1 -0.0180782 -0.0116116 0.0138205 0 0 0 1.47478e-15 2.67584e-16 -0.237253 -1.38875e-21 -2.51974e-22 -0.000290826 8.1041e-15 -4.46657e-14 -1.64095e-27 0.001415 
9887 1 -0.0551901 -0.00373509 0.0131164 0 0 0 3.88959e-16 -4.85803e-16 -0.237253 -3.92083e-19 4.89705e-19 -0.000290826 6.69012e-15 5.35645e-15 3.6222e-29 0.001415 
4853 1 -0.0586257 -7.65915e-05 0.0140141 0 0 0 7.53579e-16 1.23646e-15 -0.237253 -4.64526e-19 -7.6219e-19 -0.000290826 1.152e-14 -7.02104e-15 -1.60299e-27 0.001415 
9743 1 -0.0492029 -0.00049722 0.0145193 0 0 0 6.57347e-16 7.48773e-16 -0.237253 -3.01778e-19 -3.4375e-19 -0.000290826 2.46144e-14 -2.1609e-14 1.21495e-27 0.001415 
9744 1 -0.0476714 0.00124731 0.0129007 0 0 0 2.1076e-17 2.40073e-17 -0.237253 3.01139e-19 3.43023e-19 -0.000290826 -1.07043e-14 9.39729e-15 2.09073e-28 0.001415 
3403 1 0.0399954 0.00144601 0.0130356 0 0 0 -1.3487e-15 6.38234e-17 -0.237253 -1.01068e-17 4.78278e-19 -0.000290826 1.90316e-15 4.02172e-14 -3.30936e-28 0.001415 
3526 1 0.0549212 0.000551996 0.0133985 0 0 0 -1.47335e-15 -6.70081e-16 -0.237253 1.38741e-21 6.30993e-22 -0.000290826 -2.1984e-14 4.83378e-14 -1.36603e-27 0.001415 
3843 1 -0.0432547 0.00201405 0.0136211 0 0 0 1.21466e-15 8.27621e-16 -0.237253 -1.1438e-21 -7.79343e-22 -0.000290826 1.69879e-14 -2.49322e-14 2.01327e-27 0.001415 
6238 1 0.0476834 0.00358837 0.0131566 0 0 0 1.74387e-15 -1.12204e-15 -0.237253 1.13444e-17 -7.29917e-18 -0.000290826 -3.66922e-14 -5.70272e-14 1.08379e-27 0.001415 
1469 1 -0.0554428 0.00427207 0.0127795 0 0 0 6.9219e-16 6.67032e-16 -0.237253 3.80559e-18 3.66727e-18 -0.000290826 1.46187e-14 -1.51701e-14 -5.62209e-29 0.001415 
7479 1 0.00708078 0.00479504 0.0130634 0 0 0 -7.40625e-16 7.5104e-16 -0.237253 3.90814e-19 -3.9631e-19 -0.000290826 3.06522e-15 3.02271e-15 6.07622e-28 0.001415 
5546 1 -0.0286421 0.00814112 0.0129269 0 0 0 -1.22771e-15 -6.71205e-16 -0.237253 -7.55809e-18 -4.13212e-18 -0.000290826 -2.3849e-14 4.36224e-14 -3.67672e-27 0.001415 
7898 1 0.0197791 0.00861083 0.0142194 0 0 0 2.87165e-16 1.3688e-15 -0.237253 -2.24236e-19 -1.06884e-18 -0.000290826 2.70812e-14 -5.68145e-15 -3.89346e-28 0.001415 
4366 1 0.0434972 0.010956 0.0132345 0 0 0 -8.21583e-16 7.41128e-16 -0.237253 6.88677e-19 -6.21237e-19 -0.000290826 4.6039e-15 5.10369e-15 -2.59903e-28 0.001415 
1176 1 0.023371 0.01534 0.0142208 0 0 0 1.79914e-17 1.52448e-15 -0.237253 -1.69419e-23 -1.43556e-21 -0.000290826 2.40548e-14 -2.83885e-16 -5.20598e-30 0.001415 
4344 1 0.0486622 0.0138541 0.0135274 0 0 0 -1.31345e-15 -4.61653e-16 -0.237253 7.1377e-19 2.50876e-19 -0.000290826 -4.83282e-15 1.37499e-14 1.084e-27 0.001415 
5629 1 -0.00809486 0.0186934 0.0134007 0 0 0 1.53223e-15 2.68043e-17 -0.237253 1.25511e-17 2.19564e-19 -0.000290826 1.25523e-15 -7.17537e-14 2.74536e-28 0.001415 
9993 1 -0.0262716 0.020692 0.0134961 0 0 0 -8.23142e-16 -7.86345e-16 -0.237253 9.45748e-19 9.0347e-19 -0.000290826 -1.49542e-14 1.56539e-14 1.10907e-27 0.001415 
3553 1 0.038325 0.0241144 0.0134983 0 0 0 -1.97233e-16 1.15383e-15 -0.237253 1.37687e-19 -8.05484e-19 -0.000290826 1.82538e-14 3.12026e-15 5.04132e-28 0.001415 
2811 1 0.0616855 0.0236687 0.0131175 0 0 0 2.4796e-16 1.25813e-15 -0.237253 -2.2215e-19 -1.12717e-18 -0.000290826 4.01277e-15 -7.90863e-16 -3.72249e-28 0.001415 
4218 1 0.00694369 0.0277865 0.0128607 0 0 0 1.54752e-16 -1.14371e-15 -0.237253 5.12119e-19 -3.78489e-18 -0.000290826 -3.36882e-14 -4.55823e-15 1.22864e-28 0.001415 
9956 1 0.047731 0.0274693 0.0133129 0 0 0 3.0254e-16 1.68024e-15 -0.237253 2.42049e-18 1.34429e-17 -0.000290826 3.39987e-14 -6.12172e-15 -9.41918e-29 0.001415 
6007 1 0.0347873 0.0296881 0.0130828 0 0 0 3.83136e-16 4.29294e-16 -0.237253 -3.60786e-22 -4.04252e-22 -0.000290826 -2.63603e-15 2.3526e-15 1.33571e-29 0.001415 
8774 1 0.0137081 0.0323084 0.0137564 0 0 0 -2.44155e-16 4.10903e-16 -0.237253 1.7074e-19 -2.87348e-19 -0.000290826 -5.20277e-15 -3.09144e-15 -2.93055e-29 0.001415 
6214 1 -0.0224995 0.0352466 0.0141727 0 0 0 -2.8465e-16 -1.3235e-15 -0.237253 1.62192e-19 7.54121e-19 -0.000290826 -3.2874e-14 7.07035e-15 1.17213e-27 0.001415 
7873 1 -0.0162209 0.0354611 0.0134061 0 0 0 5.36552e-16 6.34657e-16 -0.237253 -3.50139e-19 -4.1416e-19 -0.000290826 -7.19176e-15 6.08006e-15 6.15056e-28 0.001415 
6847 1 -0.0500743 0.0395872 0.0135628 0 0 0 -1.60868e-15 6.9386e-16 -0.237253 -1.3052e-17 5.62961e-18 -0.000290826 3.53179e-14 8.1883e-14 -3.15874e-27 0.001415 
487 1 0.0121003 0.044013 0.0140092 0 0 0 8.50587e-16 -7.20956e-16 -0.237253 -1.03305e-18 8.75611e-19 -0.000290826 -7.2519e-15 -8.55581e-15 2.81558e-28 0.001415 
9747 1 -0.0328934 0.0446643 0.0137795 0 0 0 2.24654e-16 -1.44685e-15 -0.237253 -1.54809e-19 9.97025e-19 -0.000290826 -2.37999e-14 -3.69543e-15 1.84673e-28 0.001415 
8988 1 0.0105277 0.0515901 0.0142668 0 0 0 5.22487e-16 -7.39179e-16 -0.237253 -4.92008e-22 6.9606e-22 -0.000290826 -3.21199e-14 -2.27038e-14 -3.57925e-29 0.001415 
8315 1 0.0261215 0.0546907 0.0139758 0 0 0 -1.44451e-15 5.97203e-16 -0.237253 1.36025e-21 -5.62365e-22 -0.000290826 1.11458e-14 2.69594e-14 -7.78338e-28 0.001415 
6908 1 0.00786074 0.0601069 0.0145457 0 0 0 1.08787e-15 -6.55472e-16 -0.237253 -1.80293e-18 1.08632e-18 -0.000290826 -1.01097e-15 -1.67789e-15 1.60653e-27 0.001415 
6047 1 -2.16486e-05 0.0672713 0.0133885 0 0 0 -1.39167e-15 -8.36285e-17 -0.237253 1.18415e-18 7.11581e-20 -0.000290826 -8.98985e-16 1.49601e-14 1.32157e-28 0.001415 
7455 1 0.00864732 0.0657086 0.0135348 0 0 0 -6.20892e-17 1.47238e-15 -0.237253 5.84673e-23 -1.38649e-21 -0.000290826 1.78868e-14 7.54274e-16 -6.19192e-29 0.001415 
8757 1 0.00829498 0.0765507 0.0129813 0 0 0 0 0 -0.237253 0 0 -0.000290826 0 0 0 0.001415 
3316 1 0.00670592 -0.0734672 0.0153314 0 0 0 -1.02877e-15 3.29219e-16 -0.237253 -2.59684e-18 8.31026e-19 -0.000290826 -1.30126e-14 -4.06626e-14 -8.84261e-28 0.001415 