ITEM: TIMESTEP
95000
ITEM: NUMBER OF ATOMS
10248
ITEM: BOX BOUNDS ff ff ff
-0.2 0.2
-0.2 0.2
-0.01 0.5
ITEM: ATOMS id type x y z ix iy iz vx vy vz fx fy fz omegax omegay omegaz radius 
5124 1 -0.00943529 -0.0647942 0.002608 0 0 0 -1.07558e-17 -3.78602e-18 -0.218627 9.74091e-24 3.42877e-24 -0.000290852 2.43552e-16 -6.91916e-16 1.4916e-32 0.001415 
168 1 0.0236553 -0.0380352 0.0015435 0 0 0 9.6296e-18 1.28532e-16 -0.218627 2.34505e-19 3.13007e-18 -0.000290852 1.04987e-15 -7.86561e-17 -8.46384e-31 0.001415 
9891 1 -0.0536741 -0.00562861 0.00249247 0 0 0 7.1264e-18 -8.90076e-18 -0.218627 -6.45396e-24 8.06089e-24 -0.000290852 6.6297e-16 5.30807e-16 -2.89638e-31 0.001415 
8778 1 0.0127785 0.033873 0.00301678 0 0 0 -4.29744e-18 7.23243e-18 -0.218627 3.89193e-24 -6.54997e-24 -0.000290852 -4.43946e-16 -2.63788e-16 3.6864e-31 0.001415 
167 1 0.0236183 -0.0385289 0.00432985 0 0 0 -8.64982e-18 -1.15454e-16 -0.218627 -2.15612e-19 -2.87789e-18 -0.000290852 1.15094e-15 -8.62288e-17 4.83492e-30 0.001415 
5439 1 0.0255064 -0.015295 0.00488535 0 0 0 6.69755e-19 -1.27263e-18 -0.218627 -6.06557e-25 1.15255e-24 -0.000290852 -5.23918e-18 -2.75725e-18 2.22102e-33 0.001415 
4096 1 0.0493328 0.0413049 0.00443736 0 0 0 8.77182e-18 -2.98261e-18 -0.218627 1.30471e-19 -4.43629e-20 -0.000290852 -1.94014e-16 -5.70593e-16 9.14059e-31 0.001415 
5123 1 -0.00890863 -0.0646088 0.00538238 0 0 0 9.81944e-18 3.45641e-18 -0.218627 -8.89288e-24 -3.13027e-24 -0.000290852 2.42103e-16 -6.87798e-16 1.77203e-32 0.001415 
8779 1 0.0136066 -0.0379801 0.00600614 0 0 0 1.14882e-19 5.24086e-20 -0.218627 -1.04042e-25 -4.74633e-26 -0.000290852 -4.07825e-19 8.93972e-19 -5.00773e-34 0.001415 
6552 1 -0.00600865 -0.0297033 0.0066229 0 0 0 7.94164e-19 -1.28715e-19 -0.218627 -7.19227e-25 1.1657e-25 -0.000290852 -4.68487e-19 -2.89053e-18 -2.041e-34 0.001415 
9890 1 -0.0540531 -0.00515523 0.00525674 0 0 0 -6.21438e-18 7.76166e-18 -0.218627 5.62799e-24 -7.02927e-24 -0.000290852 6.56962e-16 5.25997e-16 -2.89958e-31 0.001415 
4516 1 0.00201022 -0.00437069 0.00604283 0 0 0 -1.07232e-18 1.28013e-18 -0.218627 9.71134e-25 -1.15934e-24 -0.000290852 4.69463e-18 3.93251e-18 -1.24817e-32 0.001415 
5818 1 0.0744051 0.00953964 0.00555227 0 0 0 2.36865e-19 -2.27666e-19 -0.218627 -2.14514e-25 2.06184e-25 -0.000290852 -2.53189e-19 -2.63419e-19 -1.71787e-34 0.001415 
6447 1 -0.0515136 0.0117203 0.00586521 0 0 0 -1.10176e-18 1.3422e-18 -0.218627 9.97793e-25 -1.21555e-24 -0.000290852 4.4225e-18 3.63025e-18 -1.38195e-32 0.001415 
4347 1 0.0446345 0.0124385 0.00662198 0 0 0 -7.28291e-19 -2.5598e-19 -0.218627 6.59569e-25 2.31826e-25 -0.000290852 -2.6851e-19 7.63939e-19 -3.25093e-35 0.001415 
9996 1 -0.0293411 0.0177597 0.00657664 0 0 0 -1.75258e-18 -1.67424e-18 -0.218627 1.58721e-24 1.51626e-24 -0.000290852 -7.58337e-18 7.93823e-18 1.07768e-32 0.001415 
4221 1 0.00751144 0.0235905 0.00593507 0 0 0 3.08441e-20 -2.27958e-19 -0.218627 -2.79336e-26 2.06448e-25 -0.000290852 4.14641e-19 5.61034e-20 1.08552e-34 0.001415 
3550 1 0.0375782 0.0284832 0.00669013 0 0 0 -1.07714e-18 6.30136e-18 -0.218627 9.755e-25 -5.70676e-24 -0.000290852 3.71272e-17 6.34643e-18 -1.16602e-32 0.001415 
2814 1 0.0624335 0.0274639 0.005993 0 0 0 1.42417e-19 7.22611e-19 -0.218627 -1.28978e-25 -6.54425e-25 -0.000290852 1.17362e-18 -2.31304e-19 1.95772e-33 0.001415 
8777 1 0.0130109 0.0334818 0.00580997 0 0 0 4.09765e-18 -6.8962e-18 -0.218627 -3.711e-24 6.24547e-24 -0.000290852 -4.43173e-16 -2.63329e-16 3.68519e-31 0.001415 
4641 1 -0.00200478 0.0474767 0.00511455 0 0 0 -2.10645e-18 1.13423e-18 -0.218627 1.90768e-24 -1.0272e-24 -0.000290852 5.34873e-18 9.93345e-18 -2.46539e-33 0.001415 
5122 1 -0.00838197 -0.0644234 0.00815675 0 0 0 5.3412e-19 1.88009e-19 -0.218627 -8.648e-21 -3.04407e-21 -0.000290852 7.56815e-17 -2.15006e-16 -1.5564e-30 0.001415 
8780 1 0.0123897 -0.0385353 0.00850008 0 0 0 1.92515e-17 8.78243e-18 -0.218627 2.91445e-19 1.32956e-19 -0.000290852 -1.63204e-15 3.57751e-15 2.30102e-30 0.001415 
166 1 0.0235813 -0.0390227 0.0071162 0 0 0 -9.23557e-19 -1.23272e-17 -0.218627 -1.88934e-20 -2.52181e-19 -0.000290852 1.0234e-16 -7.6673e-18 5.68121e-30 0.001415 
1407 1 0.0135434 -0.0200891 0.00731423 0 0 0 -6.80103e-19 -1.98965e-19 -0.218627 6.15928e-25 1.80191e-25 -0.000290852 -4.80069e-19 1.64097e-18 -6.54882e-34 0.001415 
8589 1 -0.0402517 -0.0187189 0.0074212 0 0 0 5.78195e-20 -7.63585e-19 -0.218627 -5.23637e-26 6.91533e-25 -0.000290852 3.63281e-18 2.75081e-19 -1.53631e-32 0.001415 
5438 1 0.0249608 -0.0142584 0.00746152 0 0 0 2.36124e-17 -4.4867e-17 -0.218627 5.74421e-18 -1.09149e-17 -0.000290852 -1.28097e-15 -6.74144e-16 1.62184e-30 0.001415 
2100 1 -0.012979 -0.0106864 0.00752884 0 0 0 5.0154e-17 9.0999e-18 -0.218627 1.33929e-17 2.42999e-18 -0.000290852 -3.64729e-17 2.0102e-16 3.50608e-31 0.001415 
9889 1 -0.0544321 -0.00468185 0.008021 0 0 0 -9.12027e-19 1.13911e-18 -0.218627 8.25968e-25 -1.03162e-24 -0.000290852 -6.00727e-18 -4.80972e-18 -3.20208e-34 0.001415 
4517 1 0.00302288 -0.0055796 0.00839271 0 0 0 1.07232e-18 -1.28013e-18 -0.218627 -9.71134e-25 1.15934e-24 -0.000290852 4.69463e-18 3.93251e-18 -1.24817e-32 0.001415 
7477 1 0.00556963 0.00632744 0.00826161 0 0 0 0 0 -0.218627 0 0 -0.000290852 0 0 0 0.001415 
6446 1 -0.0505093 0.0104969 0.00821116 0 0 0 -1.62796e-18 1.98324e-18 -0.218627 -4.18662e-20 5.10029e-20 -0.000290852 2.49541e-17 2.04838e-17 4.21092e-31 0.001415 
5819 1 0.0733204 0.0105822 0.00794921 0 0 0 -2.36865e-19 2.27666e-19 -0.218627 2.14514e-25 -2.06184e-25 -0.000290852 -2.53189e-19 -2.63419e-19 -1.71787e-34 0.001415 
4368 1 0.0417993 0.0124877 0.00849002 0 0 0 0 0 -0.218627 0 0 -0.000290852 0 0 0 0.001415 
1281 1 -0.00910888 0.0220965 0.00699123 0 0 0 -7.20048e-19 -2.66727e-19 -0.218627 6.52104e-25 2.41559e-25 -0.000290852 -8.98002e-19 2.42422e-18 -9.3914e-34 0.001415 
4220 1 0.00732219 0.0249892 0.00838798 0 0 0 1.07553e-18 -7.94888e-18 -0.218627 1.74271e-20 -1.28798e-19 -0.000290852 -7.19073e-17 -9.72951e-18 4.33478e-31 0.001415 
2813 1 0.0621842 0.0261988 0.00851218 0 0 0 9.19978e-19 4.66789e-18 -0.218627 1.70924e-20 8.67255e-20 -0.000290852 -1.20416e-16 2.37324e-17 -7.20087e-32 0.001415 
8776 1 0.0132433 0.0330907 0.00860315 0 0 0 -4.45743e-19 7.50169e-19 -0.218627 -1.04106e-20 1.75207e-20 -0.000290852 -3.26078e-17 -1.93752e-17 3.28356e-31 0.001415 
3969 1 -0.0266131 0.0377733 0.00800846 0 0 0 -1.08608e-17 3.39777e-17 -0.218627 -1.61509e-19 5.05276e-19 -0.000290852 -3.10069e-15 -9.91121e-16 2.12169e-30 0.001415 
7875 1 -0.0151895 0.0366812 0.00840939 0 0 0 2.90443e-18 3.43549e-18 -0.218627 4.33406e-20 5.12651e-20 -0.000290852 2.49564e-16 -2.10986e-16 -1.78603e-31 0.001415 
484 1 0.0153265 0.0412785 0.00708064 0 0 0 2.85382e-18 -2.4189e-18 -0.218627 -2.58454e-24 2.19065e-24 -0.000290852 -1.26415e-17 -1.49144e-17 1.11464e-32 0.001415 
4097 1 0.0483957 0.0416236 0.00708864 0 0 0 -7.31226e-18 2.48633e-18 -0.218627 -1.30472e-19 4.43633e-20 -0.000290852 -1.95535e-16 -5.75066e-16 9.12597e-31 0.001415 
4640 1 -0.000842548 0.0468509 0.00761784 0 0 0 -6.97556e-17 3.75603e-17 -0.218627 -1.42637e-17 7.68035e-18 -0.000290852 5.11841e-17 9.50572e-17 7.87801e-31 0.001415 
7350 1 0.0388042 0.0484249 0.00732171 0 0 0 -4.44034e-21 -7.50902e-20 -0.218627 4.02135e-27 6.80047e-26 -0.000290852 2.59559e-19 -1.53486e-20 3.67264e-36 0.001415 
6406 1 -0.013834 -0.0547628 0.00980848 0 0 0 1.08731e-17 -3.16993e-18 -0.218627 1.62549e-19 -4.73893e-20 -0.000290852 -1.68893e-16 -5.79317e-16 -7.36449e-31 0.001415 
4747 1 -0.048396 -0.0516837 0.0105973 0 0 0 -3.23704e-17 4.73292e-18 -0.218627 -4.86839e-19 7.11815e-20 -0.000290852 -1.7997e-16 -1.23089e-15 -3.56204e-31 0.001415 
8904 1 0.00698378 -0.051284 0.0101166 0 0 0 0 0 -0.218627 0 0 -0.000290852 0 0 0 0.001415 
9219 1 -0.0350531 -0.0474779 0.00888037 0 0 0 0 0 -0.218627 0 0 -0.000290852 0 0 0 0.001415 
8295 1 0.0424827 -0.0477148 0.00914809 0 0 0 0 0 -0.218627 0 0 -0.000290852 0 0 0 0.001415 
165 1 0.0235443 -0.0395164 0.00990255 0 0 0 2.14008e-19 2.85648e-18 -0.218627 8.65357e-21 1.15504e-19 -0.000290852 -2.36133e-17 1.76911e-18 1.28712e-29 0.001415 
6551 1 -0.00658842 -0.0296093 0.00939128 0 0 0 2.50263e-18 -4.05618e-19 -0.218627 4.92562e-20 -7.98328e-21 -0.000290852 -3.06997e-17 -1.89415e-16 1.12272e-32 0.001415 
9787 1 -0.0202299 -0.023698 0.0102064 0 0 0 -4.60267e-18 -5.72328e-18 -0.218627 -7.06112e-20 -8.78028e-20 -0.000290852 -2.64004e-16 2.12312e-16 -2.31762e-30 0.001415 
1406 1 0.0148736 -0.0197 0.00978165 0 0 0 6.80103e-19 1.98965e-19 -0.218627 -6.15928e-25 -1.80191e-25 -0.000290852 -4.80069e-19 1.64097e-18 -6.54882e-34 0.001415 
8588 1 -0.0403296 -0.0176897 0.0100563 0 0 0 3.39568e-18 -4.48445e-17 -0.218627 6.88916e-20 -9.09806e-19 -0.000290852 4.81535e-15 3.64624e-16 3.47265e-29 0.001415 
8820 1 0.00980992 -0.0172644 0.0103841 0 0 0 0 0 -0.218627 0 0 -0.000290852 0 0 0 0.001415 
3529 1 0.0670132 -0.0166749 0.010684 0 0 0 0 0 -0.218627 0 0 -0.000290852 0 0 0 0.001415 
4473 1 -0.0215554 -0.0144106 0.0101607 0 0 0 0 0 -0.218627 0 0 -0.000290852 0 0 0 0.001415 
5437 1 0.0244153 -0.0132218 0.0100377 0 0 0 -1.53362e-17 2.91411e-17 -0.218627 -5.5898e-18 1.06215e-17 -0.000290852 4.2362e-16 2.22941e-16 3.92359e-30 0.001415 
2099 1 -0.0146787 -0.0109948 0.00977042 0 0 0 -4.55467e-17 -8.26395e-18 -0.218627 -1.32968e-17 -2.41256e-18 -0.000290852 -4.77783e-18 2.63329e-17 1.62907e-31 0.001415 
3528 1 0.0516347 -0.000942708 0.00947269 0 0 0 -1.2145e-17 -5.52355e-18 -0.218627 -1.81086e-19 -8.23576e-20 -0.000290852 -3.38374e-16 7.44006e-16 -8.67315e-31 0.001415 
2457 1 0.0227749 0.00368251 0.00979567 0 0 0 0 0 -0.218627 0 0 -0.000290852 0 0 0 0.001415 
6445 1 -0.0495051 0.00927345 0.0105571 0 0 0 -1.13202e-19 1.37907e-19 -0.218627 -5.23438e-21 6.3767e-21 -0.000290852 -1.3154e-16 -1.07976e-16 2.54099e-30 0.001415 
4431 1 -0.0620527 0.012605 0.0105516 0 0 0 -2.66453e-17 5.69204e-18 -0.218627 -5.85502e-19 1.25076e-19 -0.000290852 -9.27588e-16 -4.34218e-15 -3.95781e-29 0.001415 
4346 1 0.0459771 0.0129104 0.00906816 0 0 0 -6.86263e-18 -2.41208e-18 -0.218627 -1.13414e-19 -3.98627e-20 -0.000290852 -1.58593e-16 4.51215e-16 -7.98811e-31 0.001415 
5820 1 0.0722357 0.0116248 0.0103462 0 0 0 6.11004e-18 -5.87277e-18 -0.218627 9.12555e-20 -8.77117e-20 -0.000290852 -3.76577e-16 -3.91792e-16 -3.09602e-30 0.001415 
9995 1 -0.0283179 0.0187371 0.00902749 0 0 0 1.75258e-18 1.67424e-18 -0.218627 -1.58721e-24 -1.51626e-24 -0.000290852 -7.58337e-18 7.93823e-18 1.07768e-32 0.001415 
1280 1 -0.00826091 0.0224106 0.00967286 0 0 0 7.20048e-19 2.66727e-19 -0.218627 -6.52104e-25 -2.41559e-25 -0.000290852 -8.98002e-19 2.42422e-18 -9.3914e-34 0.001415 
3551 1 0.0378271 0.027027 0.00910389 0 0 0 1.07714e-18 -6.30136e-18 -0.218627 -9.755e-25 5.70676e-24 -0.000290852 3.71272e-17 6.34643e-18 -1.16602e-32 0.001415 
3968 1 -0.0261983 0.0364757 0.010489 0 0 0 1.08608e-17 -3.39777e-17 -0.218627 1.61509e-19 -5.05276e-19 -0.000290852 -3.10069e-15 -9.91121e-16 2.12169e-30 0.001415 
9745 1 -0.0323504 0.0411674 0.0097953 0 0 0 0 0 -0.218627 0 0 -0.000290852 0 0 0 0.001415 
485 1 0.0142511 0.04219 0.00953454 0 0 0 -2.85382e-18 2.4189e-18 -0.218627 2.58454e-24 -2.19065e-24 -0.000290852 -1.26415e-17 -1.49144e-17 1.11464e-32 0.001415 
4098 1 0.0474587 0.0419422 0.00973992 0 0 0 1.05727e-18 -3.59494e-19 -0.218627 3.78871e-20 -1.28825e-20 -0.000290852 -2.43387e-17 -7.15797e-17 -1.75139e-31 0.001415 
4639 1 0.000319678 0.0462251 0.0101211 0 0 0 6.06949e-17 -3.26816e-17 -0.218627 1.4049e-17 -7.56478e-18 -0.000290852 3.23481e-16 6.00756e-16 -2.09752e-31 0.001415 
7349 1 0.0388392 0.0490157 0.0100891 0 0 0 -6.38828e-19 -1.08032e-17 -0.218627 -1.62515e-20 -2.74827e-19 -0.000290852 -2.65121e-16 1.56775e-17 -2.52065e-30 0.001415 
3318 1 0.0108764 -0.0748018 0.0121783 0 0 0 0 0 -0.218627 0 0 -0.000290852 0 0 0 0.001415 
5121 1 -0.0078553 -0.064238 0.0109311 0 0 0 -7.99783e-18 -2.81521e-18 -0.218627 -2.10091e-19 -7.39515e-20 -0.000290852 -2.59686e-16 7.3775e-16 4.77956e-29 0.001415 
6407 1 -0.0157638 -0.0542001 0.0118005 0 0 0 -1.08731e-17 3.16993e-18 -0.218627 -1.62549e-19 4.73893e-20 -0.000290852 -1.68893e-16 -5.79317e-16 -7.36449e-31 0.001415 
4748 1 -0.0463698 -0.05198 0.0125507 0 0 0 1.34893e-17 -1.97229e-18 -0.218627 7.53421e-21 -1.10159e-21 -0.000290852 -1.21677e-15 -8.322e-15 2.83801e-29 0.001415 
8903 1 0.00719176 -0.0530399 0.0123263 0 0 0 -2.01126e-18 1.698e-17 -0.218627 -5.66373e-20 4.78158e-19 -0.000290852 -4.13238e-15 -4.89476e-16 3.74913e-29 0.001415 
8421 1 -0.0125515 -0.050364 0.0120038 0 0 0 0 0 -0.218627 0 0 -0.000290852 0 0 0 0.001415 
5040 1 0.0412118 -0.051077 0.0115809 0 0 0 0 0 -0.218627 0 0 -0.000290852 0 0 0 0.001415 
9218 1 -0.0344149 -0.0491301 0.0110876 0 0 0 -5.71145e-18 1.47839e-17 -0.218627 -1.43443e-19 3.71299e-19 -0.000290852 -2.34135e-15 -9.04531e-16 -3.37219e-29 0.001415 
8294 1 0.0417911 -0.0460756 0.0113489 0 0 0 0 0 -0.218627 0 0 -0.000290852 0 0 0 0.001415 
8781 1 0.0111727 -0.0390904 0.010994 0 0 0 -1.93664e-17 -8.83484e-18 -0.218627 -2.91445e-19 -1.32956e-19 -0.000290852 -1.63163e-15 3.57662e-15 2.30152e-30 0.001415 
7141 1 -0.0440609 -0.0300013 0.0125414 0 0 0 0 0 -0.218627 0 0 -0.000290852 0 0 0 0.001415 
6550 1 -0.00716818 -0.0295154 0.0121597 0 0 0 -3.29679e-18 5.34333e-19 -0.218627 -4.92555e-20 7.98316e-21 -0.000290852 -3.02312e-17 -1.86525e-16 1.14313e-32 0.001415 
9788 1 -0.0191042 -0.0222982 0.0123933 0 0 0 -2.76001e-18 -3.43199e-18 -0.218627 -1.63367e-19 -2.03142e-19 -0.000290852 3.40036e-15 -2.73458e-15 7.96184e-29 0.001415 
1405 1 0.0162037 -0.0193109 0.0122491 0 0 0 -2.53054e-17 -7.40313e-18 -0.218627 -6.11643e-19 -1.78937e-19 -0.000290852 1.06649e-15 -3.64546e-15 -3.27289e-29 0.001415 
8819 1 0.00974619 -0.0192248 0.0124241 0 0 0 1.06458e-18 3.27433e-17 -0.218627 2.44453e-20 7.51862e-19 -0.000290852 -3.98515e-15 1.29569e-16 -3.15947e-29 0.001415 
4472 1 -0.0211077 -0.0159411 0.0124987 0 0 0 -1.22035e-17 4.17149e-17 -0.218627 -2.54798e-19 8.70972e-19 -0.000290852 -7.07488e-15 -2.06972e-15 -7.24544e-29 0.001415 
4389 1 -0.00210167 -0.0164576 0.0111907 0 0 0 4.00529e-18 -1.95253e-18 -0.218627 1.24326e-19 -6.06073e-20 -0.000290852 -1.68534e-16 -3.4572e-16 -3.71902e-30 0.001415 
2098 1 -0.0163785 -0.0113032 0.012012 0 0 0 -4.60733e-18 -8.3595e-19 -0.218627 -9.60398e-20 -1.74254e-20 -0.000290852 3.16951e-17 -1.74687e-16 -1.87701e-31 0.001415 
4518 1 0.00403554 -0.00678852 0.0107426 0 0 0 -1.65242e-17 1.97266e-17 -0.218627 -3.62292e-19 4.32504e-19 -0.000290852 -4.29888e-15 -3.60101e-15 -8.05395e-29 0.001415 
9888 1 -0.0548111 -0.00420847 0.0107853 0 0 0 4.42987e-18 -5.53284e-18 -0.218627 1.25577e-19 -1.56844e-19 -0.000290852 -2.7537e-16 -2.20475e-16 -1.02896e-29 0.001415 
3527 1 0.053278 -0.000195356 0.0116522 0 0 0 1.2145e-17 5.52355e-18 -0.218627 1.81086e-19 8.23576e-20 -0.000290852 -3.38374e-16 7.44006e-16 -8.67315e-31 0.001415 
4852 1 -0.0576017 0.00160357 0.0124131 0 0 0 9.04757e-18 1.48452e-17 -0.218627 2.49951e-19 4.10116e-19 -0.000290852 -2.29514e-15 1.3988e-15 4.0055e-29 0.001415 
2456 1 0.0231999 0.00341526 0.0125808 0 0 0 -2.04016e-16 1.283e-16 -0.218627 -2.23238e-18 1.40388e-18 -0.000290852 7.45849e-16 1.18601e-15 -2.35057e-29 0.001415 
1470 1 -0.0541433 0.00552442 0.0110328 0 0 0 1.95364e-17 1.88264e-17 -0.218627 4.34166e-19 4.18386e-19 -0.000290852 -3.98922e-15 4.13968e-15 7.20334e-29 0.001415 
7478 1 0.0063252 0.00556124 0.010879 0 0 0 0 0 -0.218627 0 0 -0.000290852 0 0 0 0.001415 
5545 1 -0.0302182 0.00727945 0.0111732 0 0 0 0 0 -0.218627 0 0 -0.000290852 0 0 0 0.001415 
4367 1 0.0426483 0.0117219 0.0110788 0 0 0 -9.65114e-18 8.70603e-18 -0.218627 -2.7382e-19 2.47005e-19 -0.000290852 -6.02768e-16 -6.68203e-16 1.30291e-29 0.001415 
4345 1 0.0473197 0.0133822 0.0115143 0 0 0 7.59092e-18 2.66806e-18 -0.218627 1.13413e-19 3.98625e-20 -0.000290852 -1.58325e-16 4.50451e-16 -7.98779e-31 0.001415 
9994 1 -0.0272948 0.0197145 0.0114783 0 0 0 -1.84809e-17 -1.76548e-17 -0.218627 -4.39487e-19 -4.1984e-19 -0.000290852 2.68991e-15 -2.81579e-15 5.04227e-29 0.001415 
1279 1 -0.00741294 0.0227247 0.0123545 0 0 0 -2.16506e-17 -8.02001e-18 -0.218627 -4.97484e-19 -1.84283e-19 -0.000290852 1.62049e-16 -4.37464e-16 -2.12481e-29 0.001415 
2812 1 0.0619348 0.0249338 0.0110314 0 0 0 2.25845e-18 1.14592e-17 -0.218627 7.4116e-20 3.76058e-19 -0.000290852 -7.42623e-16 1.46361e-16 -3.17264e-29 0.001415 
4219 1 0.00713294 0.0263879 0.0108409 0 0 0 1.59802e-18 -1.18104e-17 -0.218627 5.27225e-20 -3.89653e-19 -0.000290852 2.24086e-15 3.03202e-16 -5.38489e-30 0.001415 
3552 1 0.038076 0.0255707 0.0115176 0 0 0 -1.38865e-18 8.12374e-18 -0.218627 -4.38495e-20 2.56524e-19 -0.000290852 -2.09644e-15 -3.58361e-16 2.84634e-29 0.001415 
9955 1 0.0480973 0.0295036 0.011813 0 0 0 0 0 -0.218627 0 0 -0.000290852 0 0 0 0.001415 
6216 1 -0.023401 0.0310553 0.0109103 0 0 0 -1.85116e-18 -8.60709e-18 -0.218627 -2.84113e-20 -1.321e-19 -0.000290852 -3.02449e-16 6.50489e-17 1.09451e-31 0.001415 
8775 1 0.0134757 0.0326995 0.0113963 0 0 0 -1.10433e-18 1.85854e-18 -0.218627 -4.39255e-20 7.3925e-20 -0.000290852 2.27497e-16 1.35177e-16 -5.70843e-30 0.001415 
7874 1 -0.0157052 0.0360712 0.0111243 0 0 0 -2.90443e-18 -3.43549e-18 -0.218627 -4.33406e-20 -5.12651e-20 -0.000290852 2.49564e-16 -2.10986e-16 -1.78603e-31 0.001415 
4099 1 0.0465216 0.0422608 0.0123912 0 0 0 -2.51683e-18 8.55777e-19 -0.218627 -3.78858e-20 1.2882e-20 -0.000290852 -2.2818e-17 -6.71074e-17 -1.73677e-31 0.001415 
9746 1 -0.0326219 0.0429159 0.0120039 0 0 0 3.17645e-18 -2.04575e-17 -0.218627 8.51412e-20 -5.4834e-19 -0.000290852 4.55029e-15 7.06527e-16 -2.97136e-29 0.001415 
486 1 0.0131757 0.0431015 0.0119884 0 0 0 2.7318e-17 -2.31547e-17 -0.218627 5.95386e-19 -5.04649e-19 -0.000290852 4.80753e-15 5.67194e-15 -1.6916e-29 0.001415 
8316 1 0.0241447 0.055508 0.012556 0 0 0 0 0 -0.218627 0 0 -0.000290852 0 0 0 0.001415 
6048 1 -0.0014895 0.0671831 0.0114036 0 0 0 -1.89805e-17 -1.14058e-18 -0.218627 -5.18973e-19 -3.11862e-20 -0.000290852 1.41398e-16 -2.35302e-15 -2.81368e-30 0.001415 
3317 1 0.00879117 -0.0741345 0.0139714 0 0 0 7.26818e-16 -2.32592e-16 -0.218627 1.28991e-17 -4.1279e-18 -0.000290852 -2.83777e-15 -8.86764e-15 -2.86529e-28 0.001415 
4537 1 0.0348065 -0.0668743 0.0139493 0 0 0 2.32992e-16 -4.53736e-16 -0.218627 3.85881e-18 -7.51477e-18 -0.000290852 5.90317e-15 3.03126e-15 -2.37816e-29 0.001415 
5120 1 -0.00732864 -0.0640527 0.0137055 0 0 0 -2.82657e-16 -9.94944e-17 -0.218627 -4.5904e-18 -1.61581e-18 -0.000290852 1.40276e-15 -3.98514e-15 5.4357e-29 0.001415 
4749 1 -0.0443437 -0.0522762 0.0145041 0 0 0 -5.33621e-16 7.80215e-17 -0.218627 -9.75358e-18 1.42608e-18 -0.000290852 1.57448e-15 1.07685e-14 2.35549e-29 0.001415 
6408 1 -0.0176936 -0.0536375 0.0137926 0 0 0 7.80069e-16 -2.27421e-16 -0.218627 1.39299e-17 -4.06112e-18 -0.000290852 -1.26042e-15 -4.32333e-15 1.08577e-28 0.001415 
9217 1 -0.0337766 -0.0507822 0.0132949 0 0 0 -2.09229e-16 5.41584e-16 -0.218627 -2.11874e-18 5.48431e-18 -0.000290852 -2.52203e-16 -9.74334e-17 4.67576e-28 0.001415 
5039 1 0.0393096 -0.0515993 0.0136101 0 0 0 7.13823e-16 1.96002e-16 -0.218627 1.28198e-17 3.52005e-18 -0.000290852 1.25395e-15 -4.56678e-15 1.3899e-28 0.001415 
8420 1 -0.0130316 -0.0490822 0.0144807 0 0 0 2.36217e-16 -6.30746e-16 -0.218627 4.25196e-18 -1.13536e-17 -0.000290852 2.20608e-16 8.26186e-17 2.27472e-28 0.001415 
8293 1 0.0410995 -0.0444363 0.0135497 0 0 0 3.10186e-16 -7.35197e-16 -0.218627 5.50726e-18 -1.30532e-17 -0.000290852 -1.4295e-14 -6.03116e-15 2.74169e-28 0.001415 
8782 1 0.00995582 -0.0396456 0.013488 0 0 0 5.32546e-16 2.42944e-16 -0.218627 9.71633e-18 4.43253e-18 -0.000290852 4.30606e-15 -9.4391e-15 -2.10848e-28 0.001415 
164 1 0.0235073 -0.0400101 0.0126889 0 0 0 2.00878e-17 2.68123e-16 -0.218627 3.29112e-19 4.39284e-18 -0.000290852 -3.74015e-15 2.80213e-16 1.77028e-29 0.001415 
1765 1 -0.00582286 -0.0341936 0.0142428 0 0 0 6.09725e-16 -1.90806e-16 -0.218627 1.11315e-17 -3.48347e-18 -0.000290852 -4.49682e-15 -1.43697e-14 3.10592e-29 0.001415 
2898 1 -0.0015393 -0.0260351 0.014515 0 0 0 4.3355e-16 -8.55868e-17 -0.218627 7.14328e-18 -1.41015e-18 -0.000290852 4.00969e-16 2.03116e-15 -3.77109e-29 0.001415 
1113 1 0.057839 -0.0250229 0.0133716 0 0 0 6.63608e-16 3.40461e-16 -0.218627 1.17658e-17 6.03637e-18 -0.000290852 3.20472e-15 -6.24646e-15 -1.64929e-28 0.001415 
2604 1 -0.0264828 -0.0239558 0.0142395 0 0 0 6.25276e-16 -2.72242e-17 -0.218627 1.12426e-17 -4.89496e-19 -0.000290852 -7.44937e-16 -1.71095e-14 3.70817e-29 0.001415 
8818 1 0.00968245 -0.0211851 0.0144642 0 0 0 2.18668e-17 6.72553e-16 -0.218627 3.92934e-19 1.20854e-17 -0.000290852 1.48312e-15 -4.82208e-17 -2.11894e-29 0.001415 
3530 1 0.0663652 -0.0174708 0.0133214 0 0 0 4.11181e-16 5.05011e-16 -0.218627 6.68681e-18 8.21272e-18 -0.000290852 -1.28528e-15 1.04648e-15 -3.97412e-28 0.001415 
8587 1 -0.0404076 -0.0166605 0.0126913 0 0 0 3.49655e-17 -4.61767e-16 -0.218627 5.00466e-19 -6.60932e-18 -0.000290852 1.87266e-15 1.418e-16 -1.337e-29 0.001415 
4388 1 -0.00265555 -0.0161876 0.0139528 0 0 0 2.89673e-16 -1.41212e-16 -0.218627 4.7592e-18 -2.32006e-18 -0.000290852 1.83563e-15 3.76548e-15 8.01353e-30 0.001415 
2097 1 -0.0180782 -0.0116116 0.0142536 0 0 0 7.2322e-16 1.3122e-16 -0.218627 1.29806e-17 2.35518e-18 -0.000290852 2.30864e-15 -1.27241e-14 -1.96099e-28 0.001415 
5436 1 0.0238697 -0.0121851 0.0126139 0 0 0 -4.29001e-19 8.15167e-19 -0.218627 7.06381e-20 -1.34223e-19 -0.000290852 2.76585e-15 1.45559e-15 -2.36923e-29 0.001415 
4519 1 0.0050482 -0.00799743 0.0130925 0 0 0 -3.0491e-16 3.64001e-16 -0.218627 -4.16396e-18 4.97092e-18 -0.000290852 9.01533e-16 7.5518e-16 1.99092e-28 0.001415 
9887 1 -0.0551901 -0.00373509 0.0135495 0 0 0 2.02707e-16 -2.53178e-16 -0.218627 3.28759e-18 -4.10614e-18 -0.000290852 3.36468e-15 2.69394e-15 -3.02833e-29 0.001415 
4853 1 -0.0586257 -7.65915e-05 0.0144472 0 0 0 3.72295e-16 6.10858e-16 -0.218627 6.51035e-18 1.06821e-17 -0.000290852 -1.0314e-15 6.286e-16 6.5188e-29 0.001415 
9744 1 -0.0476714 0.00124731 0.0133338 0 0 0 4.82565e-18 5.49682e-18 -0.218627 1.46301e-19 1.66649e-19 -0.000290852 -1.21193e-15 1.06395e-15 -6.67326e-30 0.001415 
3403 1 0.0399954 0.00144601 0.0134687 0 0 0 -6.34681e-16 3.00345e-17 -0.218627 -1.25096e-17 5.91981e-19 -0.000290852 2.85366e-16 6.03028e-15 -2.24929e-29 0.001415 
3526 1 0.0549212 0.000551996 0.0138316 0 0 0 -7.3012e-16 -3.32058e-16 -0.218627 -1.30737e-17 -5.9459e-18 -0.000290852 -6.26305e-15 1.3771e-14 -7.40081e-28 0.001415 
3843 1 -0.0432547 0.00201405 0.0140542 0 0 0 5.84781e-16 3.98448e-16 -0.218627 1.0375e-17 7.06913e-18 -0.000290852 3.15341e-15 -4.62809e-15 6.92193e-28 0.001415 
6238 1 0.0476834 0.00358837 0.0135897 0 0 0 7.43338e-16 -4.78276e-16 -0.218627 1.29678e-17 -8.34372e-18 -0.000290852 -3.07761e-15 -4.78323e-15 -9.1571e-30 0.001415 
1469 1 -0.0554428 0.00427207 0.0132126 0 0 0 4.17363e-16 4.02194e-16 -0.218627 4.90247e-18 4.72428e-18 -0.000290852 4.57703e-15 -4.74966e-15 -2.47838e-28 0.001415 
7479 1 0.00708078 0.00479504 0.0134965 0 0 0 -3.8317e-16 3.88559e-16 -0.218627 -6.2761e-18 6.36436e-18 -0.000290852 -2.07744e-15 -2.04863e-15 -9.84734e-30 0.001415 
6444 1 -0.0485008 0.00805 0.0129031 0 0 0 -1.10322e-17 1.34398e-17 -0.218627 -3.20016e-19 3.89854e-19 -0.000290852 -3.73987e-15 -3.06991e-15 -9.84851e-29 0.001415 
5546 1 -0.0286421 0.00814112 0.01336 0 0 0 -6.97648e-16 -3.81414e-16 -0.218627 -9.1898e-18 -5.0242e-18 -0.000290852 -7.12698e-15 1.3036e-14 -1.88173e-28 0.001415 
7897 1 0.0202104 0.0106666 0.0127559 0 0 0 5.23714e-18 2.49634e-17 -0.218627 1.29321e-19 6.16423e-19 -0.000290852 -3.70305e-15 7.76874e-16 -4.24118e-30 0.001415 
4366 1 0.0434972 0.010956 0.0136675 0 0 0 -4.30155e-16 3.88031e-16 -0.218627 -6.98218e-18 6.29843e-18 -0.000290852 -9.94183e-16 -1.10211e-15 6.79048e-29 0.001415 
4430 1 -0.0607358 0.0123237 0.0130407 0 0 0 -4.84101e-16 1.03415e-16 -0.218627 -5.48136e-18 1.17094e-18 -0.000290852 5.30984e-16 2.48562e-15 1.82325e-29 0.001415 
5821 1 0.071151 0.0126674 0.0127431 0 0 0 -6.11004e-18 5.87277e-18 -0.218627 -9.12555e-20 8.77117e-20 -0.000290852 -3.76577e-16 -3.91792e-16 -3.09602e-30 0.001415 
4344 1 0.0486622 0.0138541 0.0139605 0 0 0 -6.61004e-16 -2.3233e-16 -0.218627 -1.18851e-17 -4.17737e-18 -0.000290852 -7.04724e-16 2.00502e-15 2.52667e-28 0.001415 
5629 1 -0.00809486 0.0186934 0.0138338 0 0 0 6.4794e-16 1.13348e-17 -0.218627 1.18257e-17 2.06874e-19 -0.000290852 3.5275e-16 -2.01645e-14 3.75837e-29 0.001415 
9993 1 -0.0262716 0.020692 0.0139292 0 0 0 -4.10693e-16 -3.92334e-16 -0.218627 -7.41624e-18 -7.08471e-18 -0.000290852 -5.22095e-15 5.46527e-15 2.12189e-28 0.001415 
3553 1 0.038325 0.0241144 0.0139314 0 0 0 -9.68528e-17 5.66598e-16 -0.218627 -1.76077e-18 1.03007e-17 -0.000290852 5.42939e-15 9.28086e-16 7.22484e-29 0.001415 
2811 1 0.0616855 0.0236687 0.0135505 0 0 0 1.26223e-16 6.40446e-16 -0.218627 2.23305e-18 1.13303e-17 -0.000290852 -2.98186e-15 5.87684e-16 -7.23582e-29 0.001415 
4218 1 0.00694369 0.0277865 0.0132938 0 0 0 8.193e-17 -6.05515e-16 -0.218627 1.4691e-18 -1.08576e-17 -0.000290852 -5.97042e-15 -8.07835e-16 6.64413e-29 0.001415 
9956 1 0.047731 0.0274693 0.013746 0 0 0 1.28197e-16 7.11981e-16 -0.218627 2.30998e-18 1.28291e-17 -0.000290852 5.1308e-15 -9.23839e-16 -3.26164e-29 0.001415 
6007 1 0.0347873 0.0296881 0.0135159 0 0 0 1.91382e-16 2.14438e-16 -0.218627 3.19643e-18 3.58152e-18 -0.000290852 -2.81633e-15 2.51352e-15 3.49215e-29 0.001415 
8774 1 0.0137081 0.0323084 0.0141895 0 0 0 -1.26614e-16 2.13086e-16 -0.218627 -2.06728e-18 3.47915e-18 -0.000290852 -3.12974e-15 -1.85966e-15 2.55114e-29 0.001415 
6215 1 -0.0229502 0.0331509 0.0127581 0 0 0 -1.00379e-18 -4.66716e-18 -0.218627 -5.4676e-20 -2.54219e-19 -0.000290852 4.75241e-15 -1.02212e-15 -2.23723e-29 0.001415 
3967 1 -0.0257836 0.0351781 0.0129695 0 0 0 -1.7393e-16 5.44133e-16 -0.218627 -1.92814e-18 6.03212e-18 -0.000290852 1.73661e-15 5.55099e-16 -4.1821e-29 0.001415 
7873 1 -0.0162209 0.0354611 0.0138392 0 0 0 2.78697e-16 3.29655e-16 -0.218627 4.59519e-18 5.43539e-18 -0.000290852 -5.93756e-15 5.01974e-15 3.30675e-29 0.001415 
6847 1 -0.0500743 0.0395872 0.0139959 0 0 0 -7.0412e-16 3.03702e-16 -0.218627 -1.22747e-17 5.29435e-18 -0.000290852 7.47854e-15 1.73386e-14 -6.60723e-28 0.001415 
487 1 0.0121003 0.044013 0.0144423 0 0 0 4.22183e-16 -3.57842e-16 -0.218627 7.54668e-18 -6.39656e-18 -0.000290852 -1.98924e-15 -2.34691e-15 -4.73305e-29 0.001415 
9747 1 -0.0328934 0.0446643 0.0142126 0 0 0 1.11463e-16 -7.17862e-16 -0.218627 1.96161e-18 -1.26335e-17 -0.000290852 -5.88348e-15 -9.13533e-16 -9.55724e-29 0.001415 
4638 1 0.00148191 0.0455993 0.0126244 0 0 0 3.9786e-18 -2.1423e-18 -0.218627 -1.32069e-20 7.11133e-21 -0.000290852 -5.49897e-16 -1.02125e-15 -5.29151e-31 0.001415 
7348 1 0.0388741 0.0496065 0.0128566 0 0 0 -1.89886e-17 -3.21114e-16 -0.218627 -3.06305e-19 -5.17989e-18 -0.000290852 4.57589e-15 -2.70588e-16 -6.68397e-30 0.001415 
8315 1 0.0261215 0.0546907 0.0144089 0 0 0 -7.0686e-16 2.92236e-16 -0.218627 -1.24154e-17 5.13287e-18 -0.000290852 1.67322e-15 4.0472e-15 7.32869e-28 0.001415 
4831 1 0.0293284 0.0560787 0.0130253 0 0 0 5.1975e-16 -2.88925e-16 -0.218627 6.63449e-18 -3.68806e-18 -0.000290852 -5.65947e-15 -1.01809e-14 -3.47257e-28 0.001415 
6909 1 0.00964204 0.0590336 0.0130594 0 0 0 7.23423e-17 -4.35882e-17 -0.218627 1.35685e-18 -8.17536e-19 -0.000290852 6.64096e-15 1.10218e-14 -2.82914e-28 0.001415 
6047 1 -2.16486e-05 0.0672713 0.0138215 0 0 0 -7.07641e-16 -4.25237e-17 -0.218627 -1.24848e-17 -7.50241e-19 -0.000290852 -6.82729e-17 1.13614e-15 1.28648e-30 0.001415 
7455 1 0.00864732 0.0657086 0.0139679 0 0 0 -2.97999e-17 7.06673e-16 -0.218627 -5.4175e-19 1.2847e-17 -0.000290852 1.2033e-15 5.07421e-17 -1.50421e-29 0.001415 
8757 1 0.00829498 0.0765507 0.0134144 0 0 0 0 0 -0.218627 0 0 -0.000290852 0 0 0 0.001415 
3316 1 0.00670592 -0.0734672 0.0157645 0 0 0 -7.26818e-16 2.32592e-16 -0.218627 -1.28991e-17 4.1279e-18 -0.000290852 -2.83777e-15 -8.86764e-15 -2.86529e-28 0.001415 
2499 1 0.0564696 -0.0568217 0.0159115 0 0 0 5.98506e-18 -1.36933e-17 -0.218627 9.14272e-20 -2.09178e-19 -0.000290852 -3.73057e-16 -1.63055e-16 -1.70955e-30 0.001415 
8902 1 0.00739974 -0.0547957 0.014536 0 0 0 -8.49632e-17 7.17298e-16 -0.218627 -1.49545e-18 1.26253e-17 -0.000290852 4.08142e-15 4.8344e-16 5.57725e-31 0.001415 
4054 1 -0.0359786 -0.0521436 0.016198 0 0 0 0 0 -0.218627 0 0 -0.000290852 0 0 0 0.001415 
9216 1 -0.0331383 -0.0524344 0.0155021 0 0 0 1.84104e-16 -4.76548e-16 -0.218627 7.14749e-19 -1.85011e-18 -0.000290852 4.46577e-15 1.72525e-15 2.55305e-28 0.001415 
6409 1 -0.0196234 -0.0530749 0.0157846 0 0 0 -7.80069e-16 2.27421e-16 -0.218627 -1.39299e-17 4.06112e-18 -0.000290852 -1.26042e-15 -4.32333e-15 1.08577e-28 0.001415 
5038 1 0.0374074 -0.0521216 0.0156393 0 0 0 -6.57645e-16 -1.80576e-16 -0.218627 -1.16869e-17 -3.209e-18 -0.000290852 1.50604e-15 -5.48489e-15 2.23055e-28 0.001415 
8292 1 0.0404079 -0.0427971 0.0157505 0 0 0 -3.00253e-16 7.11655e-16 -0.218627 -5.25022e-18 1.2444e-17 -0.000290852 -1.38511e-14 -5.8439e-15 3.26472e-28 0.001415 
163 1 0.0234703 -0.0405039 0.0154752 0 0 0 -1.99191e-17 -2.6587e-16 -0.218627 -3.22176e-19 -4.30026e-18 -0.000290852 -2.43401e-15 1.82356e-16 1.98351e-29 0.001415 
8783 1 0.00873888 -0.0402008 0.0159819 0 0 0 -5.20278e-16 -2.37348e-16 -0.218627 -9.36706e-18 -4.2732e-18 -0.000290852 3.55601e-15 -7.79495e-15 -1.39054e-28 0.001415 
1766 1 -0.00794199 -0.0335305 0.0159973 0 0 0 -5.6238e-16 1.7599e-16 -0.218627 -1.01758e-17 3.18441e-18 -0.000290852 -4.09477e-15 -1.30849e-14 4.70577e-29 0.001415 
7142 1 -0.0430179 -0.0310366 0.0149599 0 0 0 -4.71779e-16 4.68287e-16 -0.218627 -8.55635e-18 8.49302e-18 -0.000290852 6.30949e-15 6.35654e-15 -1.31313e-28 0.001415 
6549 1 -0.00774795 -0.0294214 0.014928 0 0 0 3.34109e-16 -5.41513e-17 -0.218627 5.47816e-18 -8.87881e-19 -0.000290852 5.79324e-16 3.57438e-15 5.8987e-30 0.001415 
1112 1 0.0563793 -0.0257718 0.0156775 0 0 0 -6.63608e-16 -3.40461e-16 -0.218627 -1.17658e-17 -6.03637e-18 -0.000290852 3.20472e-15 -6.24646e-15 -1.64929e-28 0.001415 