ITEM: TIMESTEP
195000
ITEM: NUMBER OF ATOMS
10248
ITEM: BOX BOUNDS ff ff ff
-0.2 0.2
-0.2 0.2
-0.01 0.5
ITEM: ATOMS id type x y z ix iy iz vx vy vz fx fy fz omegax omegay omegaz radius 
168 1 0.023693 -0.0375316 0.00142235 0 0 0 0.0326149 0.435329 0.00482606 -4.32867e-08 -5.77771e-07 -0.000291056 -307.741 23.056 2.92772e-12 0.001415 
5124 1 -0.00943529 -0.0647942 0.00215114 0 0 0 -1.07552e-17 -3.78578e-18 -0.238233 1.01482e-23 3.57212e-24 -0.000290825 2.43526e-16 -6.91841e-16 1.49143e-32 0.001415 
9891 1 -0.0536741 -0.00562861 0.00203561 0 0 0 7.12596e-18 -8.90021e-18 -0.238233 -6.72378e-24 8.3979e-24 -0.000290825 6.62898e-16 5.3075e-16 -2.89607e-31 0.001415 
8778 1 0.0127785 0.033873 0.00255992 0 0 0 -4.29717e-18 7.23197e-18 -0.238233 4.05465e-24 -6.82382e-24 -0.000290825 -4.43898e-16 -2.6376e-16 3.686e-31 0.001415 
5123 1 -0.00890863 -0.0646088 0.00492552 0 0 0 9.81883e-18 3.4562e-18 -0.238233 -9.26467e-24 -3.26114e-24 -0.000290825 2.42076e-16 -6.87723e-16 1.77184e-32 0.001415 
167 1 0.0236442 -0.0381833 0.00420602 0 0 0 0.022572 0.301281 0.0120314 -2.40981e-08 -3.21651e-07 -0.000291062 400.668 -30.0181 1.61877e-11 0.001415 
5439 1 0.0255064 -0.015295 0.00442849 0 0 0 6.69713e-19 -1.27255e-18 -0.238233 -6.31916e-25 1.20073e-24 -0.000290825 -5.23861e-18 -2.75695e-18 2.22078e-33 0.001415 
9890 1 -0.0540531 -0.00515523 0.00479988 0 0 0 -6.21399e-18 7.76117e-18 -0.238233 5.86328e-24 -7.32315e-24 -0.000290825 6.56891e-16 5.2594e-16 -2.89927e-31 0.001415 
5818 1 0.0744051 0.00953964 0.00509541 0 0 0 2.3685e-19 -2.27652e-19 -0.238233 -2.23482e-25 2.14804e-25 -0.000290825 -2.53162e-19 -2.6339e-19 -1.71769e-34 0.001415 
4096 1 0.0493328 0.0413049 0.0039805 0 0 0 1.70952e-17 -5.81275e-18 -0.238233 1.16665e-19 -3.96687e-20 -0.000290825 -9.18686e-16 -2.70184e-15 4.61075e-30 0.001415 
4641 1 -0.00200478 0.0474767 0.00465769 0 0 0 -2.10631e-18 1.13416e-18 -0.238233 1.98744e-24 -1.07015e-24 -0.000290825 5.34815e-18 9.93237e-18 -2.46513e-33 0.001415 
166 1 0.0235679 -0.0392013 0.00689904 0 0 0 -0.0114052 -0.152231 -0.0638014 9.15597e-09 1.2221e-07 -0.000290998 -76.3149 5.71752 -1.31802e-11 0.001415 
8779 1 0.0136066 -0.0379801 0.00554928 0 0 0 2.27091e-19 1.03597e-19 -0.238233 -2.14274e-25 -9.77506e-26 -0.000290825 1.55087e-18 -3.39959e-18 2.49953e-32 0.001415 
6552 1 -0.00600865 -0.0297033 0.00616604 0 0 0 9.24446e-19 -1.49831e-19 -0.238233 -8.72272e-25 1.41375e-25 -0.000290825 -1.49624e-19 -9.23168e-19 -2.17646e-33 0.001415 
1407 1 0.0135434 -0.0200891 0.00685737 0 0 0 -8.62008e-19 -2.52182e-19 -0.238233 8.13358e-25 2.37949e-25 -0.000290825 -5.83715e-19 1.99525e-18 9.84932e-36 0.001415 
8589 1 -0.0402517 -0.0187189 0.00696434 0 0 0 7.32389e-20 -9.67218e-19 -0.238233 -6.91054e-26 9.1263e-25 -0.000290825 -4.51278e-18 -3.41713e-19 -1.37894e-31 0.001415 
5438 1 0.0249608 -0.0142584 0.00700466 0 0 0 4.43892e-16 -8.43461e-16 -0.238233 1.18885e-17 -2.25898e-17 -0.000290825 -2.06884e-14 -1.08878e-14 -1.39352e-28 0.001415 
2100 1 -0.012979 -0.0106864 0.00707198 0 0 0 1.0478e-15 1.90111e-16 -0.238233 2.93106e-17 5.3181e-18 -0.000290825 8.06878e-16 -4.4471e-15 2.24766e-28 0.001415 
4516 1 0.00201022 -0.00437069 0.00558597 0 0 0 -1.24696e-18 1.48862e-18 -0.238233 1.17659e-24 -1.40461e-24 -0.000290825 5.59509e-18 4.6868e-18 -2.89597e-32 0.001415 
6447 1 -0.0515136 0.0117203 0.00540835 0 0 0 -1.27928e-18 1.55846e-18 -0.238233 1.20708e-24 -1.47051e-24 -0.000290825 3.38241e-18 2.77648e-18 -3.23425e-32 0.001415 
4347 1 0.0446345 0.0124385 0.00616512 0 0 0 -9.14464e-19 -3.21416e-19 -0.238233 8.62854e-25 3.03276e-25 -0.000290825 8.33342e-19 -2.37095e-18 -1.24874e-32 0.001415 
9996 1 -0.0293411 0.0177597 0.00611978 0 0 0 -1.98982e-18 -1.90087e-18 -0.238233 1.87751e-24 1.79358e-24 -0.000290825 -9.2699e-18 9.70368e-18 1.08544e-32 0.001415 
1281 1 -0.00910888 0.0220965 0.00653437 0 0 0 -8.68966e-19 -3.21891e-19 -0.238233 8.19924e-25 3.03724e-25 -0.000290825 -1.07237e-18 2.89493e-18 -1.24271e-33 0.001415 
4221 1 0.00751144 0.0235905 0.00547821 0 0 0 5.0158e-20 -3.707e-19 -0.238233 -4.73272e-26 3.49779e-25 -0.000290825 3.31769e-18 4.48904e-19 -1.15648e-32 0.001415 
3550 1 0.0375782 0.0284832 0.00623327 0 0 0 -1.26244e-18 7.38541e-18 -0.238233 1.19119e-24 -6.96859e-24 -0.000290825 8.61965e-17 1.47342e-17 -2.39915e-32 0.001415 
2814 1 0.0624335 0.0274639 0.00553614 0 0 0 1.78695e-19 9.06686e-19 -0.238233 -1.6861e-25 -8.55514e-25 -0.000290825 -1.67111e-18 3.29353e-19 1.11998e-32 0.001415 
8777 1 0.0130109 0.0334818 0.00535311 0 0 0 4.05371e-18 -6.82224e-18 -0.238233 -3.82492e-24 6.4372e-24 -0.000290825 -4.42195e-16 -2.62748e-16 3.68188e-31 0.001415 
484 1 0.0153265 0.0412785 0.00662378 0 0 0 3.21059e-18 -2.7213e-18 -0.238233 -3.02939e-24 2.56771e-24 -0.000290825 -1.73281e-17 -2.04437e-17 1.33309e-32 0.001415 
4097 1 0.0483957 0.0416236 0.00663178 0 0 0 -1.54133e-17 5.24085e-18 -0.238233 -1.16667e-19 3.96693e-20 -0.000290825 -9.17292e-16 -2.69774e-15 4.59057e-30 0.001415 
4640 1 -0.000842548 0.0468509 0.00716098 0 0 0 -1.08058e-15 5.81845e-16 -0.238233 -2.69613e-17 1.45175e-17 -0.000290825 5.40125e-15 1.0031e-14 -4.07521e-28 0.001415 
7350 1 0.0388042 0.0484249 0.00686485 0 0 0 -8.37049e-21 -1.41553e-19 -0.238233 7.89807e-27 1.33564e-25 -0.000290825 -2.91742e-18 1.72517e-19 1.45392e-33 0.001415 
5122 1 -0.00838197 -0.0644234 0.00769989 0 0 0 -1.07903e-16 -3.79814e-17 -0.238233 -5.00981e-18 -1.76344e-18 -0.000290825 -3.94864e-16 1.12178e-15 -2.91442e-29 0.001415 
9219 1 -0.0350531 -0.0474779 0.00842351 0 0 0 0 0 -0.238233 0 0 -0.000290825 0 0 0 0.001415 
8295 1 0.0424827 -0.0477148 0.00869122 0 0 0 0 0 -0.238233 0 0 -0.000290825 0 0 0 0.001415 
8780 1 0.0123897 -0.0385353 0.00804322 0 0 0 3.8264e-17 1.74558e-17 -0.238233 2.81253e-19 1.28306e-19 -0.000290825 -3.1238e-15 6.84752e-15 -1.41219e-29 0.001415 
6551 1 -0.00658842 -0.0296093 0.00893442 0 0 0 5.52872e-18 -8.96075e-19 -0.238233 4.44515e-20 -7.20454e-21 -0.000290825 -1.50549e-16 -9.28878e-16 2.92184e-31 0.001415 
9889 1 -0.0544321 -0.00468185 0.00756414 0 0 0 1.31246e-16 -1.63924e-16 -0.238233 6.08799e-18 -7.6038e-18 -0.000290825 -3.1569e-15 -2.52758e-15 4.22419e-30 0.001415 
4517 1 0.00302288 -0.0055796 0.00793585 0 0 0 1.24696e-18 -1.48862e-18 -0.238233 -1.17659e-24 1.40461e-24 -0.000290825 5.59509e-18 4.6868e-18 -2.89597e-32 0.001415 
3528 1 0.0516347 -0.000942708 0.00901583 0 0 0 -2.37487e-17 -1.08009e-17 -0.238233 -1.63359e-19 -7.42956e-20 -0.000290825 -1.46851e-15 3.22892e-15 -1.55531e-29 0.001415 
7477 1 0.00556963 0.00632744 0.00780475 0 0 0 -1.22959e-19 1.24688e-19 -0.238233 -3.39044e-19 3.43811e-19 -0.000290825 -9.84972e-19 -9.71313e-19 2.08259e-31 0.001415 
6446 1 -0.0505093 0.0104969 0.0077543 0 0 0 -4.2547e-18 5.18322e-18 -0.238233 4.01457e-24 -4.89069e-24 -0.000290825 1.62949e-16 1.33759e-16 2.88511e-30 0.001415 
5819 1 0.0733204 0.0105822 0.00749235 0 0 0 1.64029e-16 -1.57659e-16 -0.238233 7.43514e-18 -7.14641e-18 -0.000290825 -2.47529e-16 -2.5753e-16 3.23589e-29 0.001415 
4368 1 0.0417993 0.0124877 0.00803316 0 0 0 0 0 -0.238233 0 0 -0.000290825 0 0 0 0.001415 
4346 1 0.0459771 0.0129104 0.0086113 0 0 0 -1.43137e-17 -5.03098e-18 -0.238233 -1.18639e-19 -4.16994e-20 -0.000290825 -5.49831e-16 1.56433e-15 5.76402e-31 0.001415 
9995 1 -0.0283179 0.0187371 0.00857063 0 0 0 1.98982e-18 1.90087e-18 -0.238233 -1.87751e-24 -1.79358e-24 -0.000290825 -9.2699e-18 9.70368e-18 1.08544e-32 0.001415 
4220 1 0.00732219 0.0249892 0.00793112 0 0 0 2.28452e-18 -1.6884e-17 -0.238233 1.90182e-20 -1.40557e-19 -0.000290825 -2.80848e-15 -3.80005e-16 4.56598e-31 0.001415 
2813 1 0.0621842 0.0261988 0.00805532 0 0 0 2.15276e-18 1.09229e-17 -0.238233 2.10807e-20 1.06962e-19 -0.000290825 2.69648e-15 -5.3144e-16 6.43896e-31 0.001415 
3551 1 0.0378271 0.027027 0.00864703 0 0 0 1.26244e-18 -7.38541e-18 -0.238233 -1.19119e-24 6.96859e-24 -0.000290825 8.61965e-17 1.47342e-17 -2.39915e-32 0.001415 
8776 1 0.0132433 0.0330907 0.00814629 0 0 0 -1.204e-18 2.02628e-18 -0.238233 -1.39977e-20 2.35576e-20 -0.000290825 7.31861e-16 4.34865e-16 1.07211e-30 0.001415 
3969 1 -0.0266131 0.0377733 0.0075516 0 0 0 -1.13418e-16 3.54826e-16 -0.238233 -4.60797e-18 1.44159e-17 -0.000290825 -6.20493e-15 -1.98338e-15 2.29847e-29 0.001415 
7875 1 -0.0151895 0.0366812 0.00795253 0 0 0 5.9173e-18 6.99924e-18 -0.238233 4.91905e-20 5.81847e-20 -0.000290825 1.27539e-15 -1.07824e-15 4.25565e-30 0.001415 
485 1 0.0142511 0.04219 0.00907768 0 0 0 -3.21059e-18 2.7213e-18 -0.238233 3.02939e-24 -2.56771e-24 -0.000290825 -1.73281e-17 -2.04437e-17 1.33309e-32 0.001415 
5121 1 -0.0078553 -0.064238 0.0104743 0 0 0 7.02616e-17 2.47319e-17 -0.238233 4.41748e-18 1.55494e-18 -0.000290825 -8.61024e-16 2.44611e-15 2.19768e-28 0.001415 
6406 1 -0.013834 -0.0547628 0.00935162 0 0 0 2.13231e-17 -6.21652e-18 -0.238233 1.47631e-19 -4.30402e-20 -0.000290825 -7.33639e-16 -2.51644e-15 1.13845e-29 0.001415 
4747 1 -0.048396 -0.0516837 0.0101404 0 0 0 -6.39664e-17 9.35263e-18 -0.238233 -4.52307e-19 6.61325e-20 -0.000290825 1.72621e-16 1.18062e-15 2.78503e-30 0.001415 
8904 1 0.00698378 -0.051284 0.00965978 0 0 0 0 0 -0.238233 0 0 -0.000290825 0 0 0 0.001415 
9218 1 -0.0344149 -0.0491301 0.0106308 0 0 0 -1.7826e-17 4.6142e-17 -0.238233 -2.13801e-19 5.53418e-19 -0.000290825 -1.0454e-14 -4.03869e-15 -6.91099e-29 0.001415 
8294 1 0.0417911 -0.0460756 0.010892 0 0 0 0 0 -0.238233 0 0 -0.000290825 0 0 0 0.001415 
8781 1 0.0111727 -0.0390904 0.0105372 0 0 0 -6.54877e-18 -2.98751e-18 -0.238233 4.0397e-19 1.84289e-19 -0.000290825 -5.53736e-15 1.21382e-14 -3.77044e-31 0.001415 
165 1 0.023541 -0.0395611 0.00972896 0 0 0 -0.00268463 -0.0358332 -0.0191214 1.50741e-09 2.01202e-08 -0.000291039 -10.1222 0.758357 -1.93316e-11 0.001415 
9787 1 -0.0202299 -0.023698 0.00974957 0 0 0 -9.6242e-18 -1.19674e-17 -0.238233 -8.17262e-20 -1.01624e-19 -0.000290825 -6.2446e-16 5.02192e-16 -4.31269e-29 0.001415 
1406 1 0.0148736 -0.0197 0.00932479 0 0 0 8.62008e-19 2.52182e-19 -0.238233 -8.13358e-25 -2.37949e-25 -0.000290825 -5.83715e-19 1.99525e-18 9.84932e-36 0.001415 
8588 1 -0.0403296 -0.0176897 0.00959941 0 0 0 9.9375e-18 -1.31238e-16 -0.238233 1.13518e-19 -1.49916e-18 -0.000290825 2.26557e-14 1.71551e-15 1.57854e-28 0.001415 
4389 1 -0.00210167 -0.0164576 0.0107339 0 0 0 2.54235e-17 -1.23937e-17 -0.238233 3.89989e-19 -1.90115e-19 -0.000290825 4.0461e-17 8.29988e-17 -4.19245e-29 0.001415 
8820 1 0.00980992 -0.0172644 0.0099272 0 0 0 0 0 -0.238233 0 0 -0.000290825 0 0 0 0.001415 
3529 1 0.0670132 -0.0166749 0.0102272 0 0 0 0 0 -0.238233 0 0 -0.000290825 0 0 0 0.001415 
4473 1 -0.0215554 -0.0144106 0.00970387 0 0 0 0 0 -0.238233 0 0 -0.000290825 0 0 0 0.001415 
5437 1 0.0244153 -0.0132218 0.00958084 0 0 0 -4.11736e-16 7.8236e-16 -0.238233 -1.11628e-17 2.1211e-17 -0.000290825 -1.19323e-14 -6.27964e-15 2.40197e-29 0.001415 
2099 1 -0.0146787 -0.0109948 0.00931356 0 0 0 -1.01116e-15 -1.83464e-16 -0.238233 -2.81211e-17 -5.10227e-18 -0.000290825 9.23601e-16 -5.09042e-15 1.43576e-28 0.001415 
4518 1 0.00403554 -0.00678852 0.0102857 0 0 0 -4.69642e-17 5.60658e-17 -0.238233 -5.32256e-19 6.35407e-19 -0.000290825 -1.92575e-14 -1.61312e-14 -6.09646e-28 0.001415 
9888 1 -0.0548111 -0.00420847 0.0103284 0 0 0 -1.09134e-16 1.36306e-16 -0.238233 -5.68425e-18 7.09953e-18 -0.000290825 -2.55243e-15 -2.0436e-15 6.17134e-29 0.001415 
2457 1 0.0227749 0.00368251 0.00933881 0 0 0 0 0 -0.238233 0 0 -0.000290825 0 0 0 0.001415 
1470 1 -0.0541433 0.00552442 0.0105759 0 0 0 5.59414e-17 5.39081e-17 -0.238233 6.39474e-19 6.16232e-19 -0.000290825 -2.09828e-14 2.17742e-14 -1.82503e-28 0.001415 
7478 1 0.0063252 0.00556124 0.0104222 0 0 0 -1.81507e-17 1.8406e-17 -0.238233 -4.97721e-20 5.0472e-20 -0.000290825 -4.76036e-16 -4.69435e-16 -1.67858e-28 0.001415 
5545 1 -0.0302182 0.00727945 0.0107163 0 0 0 0 0 -0.238233 0 0 -0.000290825 0 0 0 0.001415 
6445 1 -0.0495051 0.00927345 0.0101003 0 0 0 -9.51977e-19 1.15973e-18 -0.238233 -6.29728e-20 7.67156e-20 -0.000290825 1.50248e-15 1.23332e-15 1.38881e-29 0.001415 
4431 1 -0.0620527 0.012605 0.0100948 0 0 0 -7.41995e-17 1.58507e-17 -0.238233 -8.16162e-19 1.74351e-19 -0.000290825 -4.46248e-15 -2.08896e-14 4.66023e-29 0.001415 
4367 1 0.0426483 0.0117219 0.0106219 0 0 0 -4.84299e-17 4.36873e-17 -0.238233 -6.84824e-19 6.17761e-19 -0.000290825 -4.98289e-15 -5.52383e-15 -2.84322e-28 0.001415 
4345 1 0.0473197 0.0133822 0.0110575 0 0 0 -1.77535e-17 -6.24e-18 -0.238233 -5.92164e-19 -2.08134e-19 -0.000290825 1.71045e-15 -4.86643e-15 -1.87865e-28 0.001415 
5820 1 0.0722357 0.0116248 0.00988929 0 0 0 -1.51342e-16 1.45465e-16 -0.238233 -7.24899e-18 6.96749e-18 -0.000290825 -1.80155e-15 -1.87434e-15 1.34562e-31 0.001415 
9994 1 -0.0272948 0.0197145 0.0110215 0 0 0 -7.30905e-17 -6.98232e-17 -0.238233 -9.40567e-19 -8.9852e-19 -0.000290825 1.54286e-14 -1.61505e-14 -1.67315e-28 0.001415 
1280 1 -0.00826091 0.0224106 0.009216 0 0 0 8.68966e-19 3.21891e-19 -0.238233 -8.19924e-25 -3.03724e-25 -0.000290825 -1.07237e-18 2.89493e-18 -1.24271e-33 0.001415 
2812 1 0.0619348 0.0249338 0.0105745 0 0 0 1.351e-17 6.85486e-17 -0.238233 1.99957e-19 1.01457e-18 -0.000290825 -7.98748e-15 1.57422e-15 2.2686e-29 0.001415 
4219 1 0.00713294 0.0263879 0.010384 0 0 0 8.73901e-18 -6.45869e-17 -0.238233 1.32678e-19 -9.80576e-19 -0.000290825 1.63004e-14 2.20555e-15 2.02769e-28 0.001415 
3552 1 0.038076 0.0255707 0.0110608 0 0 0 -8.84845e-18 5.17643e-17 -0.238233 -1.3701e-19 8.01524e-19 -0.000290825 -1.23634e-14 -2.11337e-15 2.47838e-28 0.001415 
6216 1 -0.023401 0.0310553 0.0104535 0 0 0 -3.76393e-18 -1.75006e-17 -0.238233 -2.86618e-20 -1.33265e-19 -0.000290825 -1.73818e-15 3.73837e-16 5.63643e-30 0.001415 
8775 1 0.0134757 0.0326995 0.0109395 0 0 0 -9.61403e-18 1.61801e-17 -0.238233 -1.55851e-19 2.62292e-19 -0.000290825 3.43478e-16 2.04092e-16 7.96037e-30 0.001415 
3968 1 -0.0261983 0.0364757 0.0100321 0 0 0 1.13418e-16 -3.54826e-16 -0.238233 4.60797e-18 -1.44159e-17 -0.000290825 -6.20493e-15 -1.98338e-15 2.29847e-29 0.001415 
7874 1 -0.0157052 0.0360712 0.0106674 0 0 0 1.059e-17 1.25264e-17 -0.238233 2.99154e-19 3.53852e-19 -0.000290825 1.31534e-15 -1.11202e-15 -1.81079e-28 0.001415 
9745 1 -0.0323504 0.0411674 0.00933844 0 0 0 0 0 -0.238233 0 0 -0.000290825 0 0 0 0.001415 
4098 1 0.0474587 0.0419422 0.00928306 0 0 0 3.53362e-18 -1.20151e-18 -0.238233 4.60892e-20 -1.56714e-20 -0.000290825 -1.86651e-17 -5.48938e-17 1.2884e-30 0.001415 
4639 1 0.000319678 0.0462251 0.00966428 0 0 0 1.03121e-15 -5.55261e-16 -0.238233 2.56123e-17 -1.37911e-17 -0.000290825 6.88799e-15 1.27921e-14 -2.69662e-28 0.001415 
7349 1 0.0388392 0.0490157 0.00963228 0 0 0 -2.46876e-18 -4.1749e-17 -0.238233 -3.46016e-20 -5.85144e-19 -0.000290825 4.9753e-15 -2.94206e-16 -3.41258e-29 0.001415 
6048 1 -0.0014895 0.0671831 0.0109467 0 0 0 -8.62581e-17 -5.18344e-18 -0.238233 -1.17804e-18 -7.07912e-20 -0.000290825 9.92792e-16 -1.65211e-14 -9.82236e-29 0.001415 
3318 1 0.0108764 -0.0748018 0.0117214 0 0 0 0 0 -0.238233 0 0 -0.000290825 0 0 0 0.001415 
6407 1 -0.0157638 -0.0542001 0.0113437 0 0 0 -2.13231e-17 6.21652e-18 -0.238233 -1.47631e-19 4.30402e-20 -0.000290825 -7.33639e-16 -2.51644e-15 1.13845e-29 0.001415 
4748 1 -0.0463698 -0.05198 0.0120938 0 0 0 -6.03289e-18 8.82078e-19 -0.238233 -4.20002e-19 6.14092e-20 -0.000290825 -5.05582e-15 -3.45788e-14 1.21033e-28 0.001415 
8903 1 0.00719176 -0.0530399 0.0118695 0 0 0 -8.21611e-18 6.93642e-17 -0.238233 -1.06036e-19 8.95207e-19 -0.000290825 -1.95892e-14 -2.32031e-15 1.62086e-28 0.001415 
9217 1 -0.0337766 -0.0507822 0.012838 0 0 0 -3.36203e-16 8.70251e-16 -0.238233 -1.52822e-18 3.95575e-18 -0.000290825 4.12967e-15 1.59541e-15 1.16154e-27 0.001415 
8421 1 -0.0125515 -0.050364 0.0115469 0 0 0 9.56371e-18 -2.5537e-17 -0.238233 2.0638e-19 -5.51077e-19 -0.000290825 3.47321e-15 1.30073e-15 -6.67594e-28 0.001415 
5040 1 0.0412118 -0.051077 0.011124 0 0 0 0 0 -0.238233 0 0 -0.000290825 0 0 0 0.001415 
164 1 0.0235037 -0.040058 0.0125326 0 0 0 -0.00275484 -0.0367704 0.00207794 1.52674e-09 2.03782e-08 -0.000291051 8.2161 -0.615551 -1.82195e-11 0.001415 
7141 1 -0.0440609 -0.0300013 0.0120845 0 0 0 0 0 -0.238233 0 0 -0.000290825 0 0 0 0.001415 
6550 1 -0.00716818 -0.0295154 0.0117028 0 0 0 -6.45316e-18 1.04591e-18 -0.238233 -4.44506e-20 7.2044e-21 -0.000290825 -1.504e-16 -9.27955e-16 2.9436e-31 0.001415 
1113 1 0.057839 -0.0250229 0.0129147 0 0 0 1.57512e-15 8.08106e-16 -0.238233 1.11585e-17 5.72482e-18 -0.000290825 1.49122e-14 -2.90661e-14 3.90289e-28 0.001415 
9788 1 -0.0191042 -0.0222982 0.0119364 0 0 0 -3.87704e-17 -4.82098e-17 -0.238233 -6.78412e-19 -8.43584e-19 -0.000290825 1.68905e-14 -1.35834e-14 8.41514e-28 0.001415 
1405 1 0.0162037 -0.0193109 0.0117922 0 0 0 -1.00534e-16 -2.94113e-17 -0.238233 -1.29437e-18 -3.78671e-19 -0.000290825 5.78206e-15 -1.97642e-14 -5.68661e-28 0.001415 
8819 1 0.00974619 -0.0192248 0.0119673 0 0 0 3.46534e-18 1.06583e-16 -0.238233 3.96861e-20 1.22062e-18 -0.000290825 -2.26676e-14 7.36993e-16 -1.90141e-28 0.001415 
3530 1 0.0663652 -0.0174708 0.0128645 0 0 0 8.26044e-16 1.01455e-15 -0.238233 1.82645e-18 2.24325e-18 -0.000290825 7.26388e-15 -5.91425e-15 -4.15544e-28 0.001415 
8587 1 -0.0404076 -0.0166605 0.0122345 0 0 0 6.09204e-17 -8.04536e-16 -0.238233 2.61978e-19 -3.45977e-18 -0.000290825 -9.00332e-15 -6.81742e-16 -5.17576e-29 0.001415 
4472 1 -0.0211077 -0.0159411 0.0120418 0 0 0 -3.58624e-17 1.22588e-16 -0.238233 -3.83386e-19 1.31052e-18 -0.000290825 -2.98118e-14 -8.72128e-15 -4.70213e-28 0.001415 
5436 1 0.0238697 -0.0121851 0.012157 0 0 0 3.91575e-18 -7.44051e-18 -0.238233 -2.3424e-19 4.4509e-19 -0.000290825 1.46762e-14 7.72373e-15 2.15778e-28 0.001415 
2098 1 -0.0163785 -0.0113032 0.0115551 0 0 0 -3.66357e-17 -6.64716e-18 -0.238233 -1.18953e-18 -2.15828e-19 -0.000290825 1.16723e-16 -6.43317e-16 -8.11904e-29 0.001415 
4519 1 0.0050482 -0.00799743 0.0126356 0 0 0 -5.44903e-16 6.50505e-16 -0.238233 -2.93839e-18 3.50784e-18 -0.000290825 2.44344e-15 2.04677e-15 1.10638e-27 0.001415 
3527 1 0.053278 -0.000195356 0.0111953 0 0 0 2.37487e-17 1.08009e-17 -0.238233 1.63359e-19 7.42956e-20 -0.000290825 -1.46851e-15 3.22892e-15 -1.55531e-29 0.001415 
4852 1 -0.0576017 0.00160357 0.0119563 0 0 0 3.61929e-17 5.93849e-17 -0.238233 4.6222e-19 7.58405e-19 -0.000290825 -1.21349e-14 7.39575e-15 5.1514e-28 0.001415 
9744 1 -0.0476714 0.00124731 0.0128769 0 0 0 2.209e-17 2.51624e-17 -0.238233 3.00576e-19 3.42381e-19 -0.000290825 -1.12913e-14 9.91265e-15 2.75018e-28 0.001415 
2456 1 0.0231999 0.00341526 0.0121239 0 0 0 -3.35328e-16 2.10878e-16 -0.238233 -1.55278e-18 9.76505e-19 -0.000290825 3.75405e-15 5.96949e-15 -2.02349e-28 0.001415 
1469 1 -0.0554428 0.00427207 0.0127558 0 0 0 7.03799e-16 6.78219e-16 -0.238233 3.39306e-18 3.26974e-18 -0.000290825 1.5356e-14 -1.59352e-14 -6.25565e-29 0.001415 
6444 1 -0.0485008 0.00805 0.0124462 0 0 0 -5.59159e-17 6.81187e-17 -0.238233 -7.8632e-19 9.57922e-19 -0.000290825 -1.68106e-14 -1.37992e-14 -1.37767e-27 0.001415 
5546 1 -0.0286421 0.00814112 0.0129032 0 0 0 -1.25098e-15 -6.83931e-16 -0.238233 -6.81901e-18 -3.72805e-18 -0.000290825 -2.52742e-14 4.62293e-14 -3.75679e-27 0.001415 
7897 1 0.0202104 0.0106666 0.0122991 0 0 0 1.85126e-17 8.82424e-17 -0.238233 2.23167e-19 1.06375e-18 -0.000290825 -2.74677e-14 5.76253e-15 8.01486e-29 0.001415 
4430 1 -0.0607358 0.0123237 0.0125839 0 0 0 -8.02254e-16 1.71379e-16 -0.238233 -3.78084e-18 8.07672e-19 -0.000290825 1.25965e-15 5.89662e-15 -8.30381e-29 0.001415 
5821 1 0.071151 0.0126674 0.0122862 0 0 0 -1.29231e-17 1.24212e-17 -0.238233 -1.86154e-19 1.78925e-19 -0.000290825 -1.55428e-15 -1.61707e-15 -3.22245e-29 0.001415 
1279 1 -0.00741294 0.0227247 0.0118976 0 0 0 -7.57433e-17 -2.80576e-17 -0.238233 -8.94792e-19 -3.31458e-19 -0.000290825 5.79756e-16 -1.56509e-15 -1.23503e-28 0.001415 
4218 1 0.00694369 0.0277865 0.0128369 0 0 0 1.56293e-16 -1.1551e-15 -0.238233 4.49375e-19 -3.32117e-18 -0.000290825 -3.55776e-14 -4.81387e-15 1.47143e-28 0.001415 
9955 1 0.0480973 0.0295036 0.0113562 0 0 0 0 0 -0.238233 0 0 -0.000290825 0 0 0 0.001415 
6215 1 -0.0229502 0.0331509 0.0123012 0 0 0 -8.41713e-18 -3.9136e-17 -0.238233 -1.32947e-19 -6.18146e-19 -0.000290825 2.70621e-14 -5.82036e-15 -2.30211e-28 0.001415 
3967 1 -0.0257836 0.0351781 0.0125127 0 0 0 -2.90628e-16 9.0922e-16 -0.238233 -1.46632e-18 4.58733e-18 -0.000290825 1.31445e-14 4.20159e-15 -6.60373e-28 0.001415 
4099 1 0.0465216 0.0422608 0.0119343 0 0 0 1.38899e-17 -4.72287e-18 -0.238233 3.61348e-19 -1.22866e-19 -0.000290825 -2.70204e-16 -7.94668e-16 -1.78937e-28 0.001415 
9746 1 -0.0326219 0.0429159 0.0115471 0 0 0 1.22595e-17 -7.89556e-17 -0.238233 1.54053e-19 -9.92156e-19 -0.000290825 2.14675e-14 3.33328e-15 -2.67311e-28 0.001415 
486 1 0.0131757 0.0431015 0.0115316 0 0 0 8.93013e-17 -7.56917e-17 -0.238233 1.02714e-18 -8.70606e-19 -0.000290825 1.91267e-14 2.25657e-14 -2.41006e-28 0.001415 
4638 1 0.00148191 0.0455993 0.0121676 0 0 0 2.53236e-18 -1.36356e-18 -0.238233 5.64282e-19 -3.03841e-19 -0.000290825 -3.86705e-15 -7.18174e-15 6.06626e-28 0.001415 
7348 1 0.0388741 0.0496065 0.0123997 0 0 0 -3.53329e-17 -5.97512e-16 -0.238233 -1.79071e-19 -3.02825e-18 -0.000290825 4.7016e-15 -2.78022e-16 1.42884e-29 0.001415 
8316 1 0.0241447 0.055508 0.0120992 0 0 0 0 0 -0.238233 0 0 -0.000290825 0 0 0 0.001415 
4831 1 0.0293284 0.0560787 0.0125685 0 0 0 9.16865e-16 -5.09678e-16 -0.238233 4.98497e-18 -2.7711e-18 -0.000290825 -1.86818e-14 -3.36069e-14 -8.78632e-28 0.001415 
6909 1 0.00964204 0.0590336 0.0126026 0 0 0 1.86449e-16 -1.12341e-16 -0.238233 1.79202e-18 -1.07974e-18 -0.000290825 3.11896e-14 5.17647e-14 -1.03319e-27 0.001415 
8757 1 0.00829498 0.0765507 0.0129575 0 0 0 0 0 -0.238233 0 0 -0.000290825 0 0 0 0.001415 
3317 1 0.00879117 -0.0741345 0.0135145 0 0 0 1.23663e-15 -3.95739e-16 -0.238233 2.26957e-18 -7.26295e-19 -0.000290825 -1.80496e-14 -5.64025e-14 -1.63479e-27 0.001415 
4537 1 0.0348065 -0.0668743 0.0134925 0 0 0 4.56669e-16 -8.89332e-16 -0.238233 -4.30895e-22 8.3914e-22 -0.000290825 9.44205e-15 4.84846e-15 -4.63257e-29 0.001415 
5120 1 -0.00732864 -0.0640527 0.0132486 0 0 0 -5.38266e-16 -1.89468e-16 -0.238233 5.92874e-19 2.0869e-19 -0.000290825 2.45385e-15 -6.97122e-15 2.97201e-28 0.001415 
8902 1 0.00739974 -0.0547957 0.0140791 0 0 0 -1.71844e-16 1.45079e-15 -0.238233 1.06206e-19 -8.96642e-19 -0.000290825 1.74132e-14 2.06258e-15 3.25481e-29 0.001415 
4749 1 -0.0443437 -0.0522762 0.0140472 0 0 0 -1.11495e-15 1.63019e-16 -0.238233 8.73427e-19 -1.27705e-19 -0.000290825 3.94504e-15 2.69817e-14 -9.6537e-29 0.001415 
6408 1 -0.0176936 -0.0536375 0.0133357 0 0 0 2.40376e-15 -7.0079e-16 -0.238233 2.3712e-17 -6.91297e-18 -0.000290825 -2.26495e-14 -7.76895e-14 -2.06019e-27 0.001415 
5039 1 0.0393096 -0.0515993 0.0131532 0 0 0 1.56456e-15 4.29596e-16 -0.238233 1.07423e-17 2.94962e-18 -0.000290825 1.18182e-14 -4.30409e-14 2.22388e-27 0.001415 
8420 1 -0.0130316 -0.0490822 0.0140238 0 0 0 4.7152e-16 -1.25905e-15 -0.238233 -2.06834e-19 5.52289e-19 -0.000290825 -1.20058e-14 -4.4962e-15 1.4895e-27 0.001415 
8293 1 0.0410995 -0.0444363 0.0130928 0 0 0 6.40368e-16 -1.51779e-15 -0.238233 2.89349e-18 -6.8581e-18 -0.000290825 -8.0151e-14 -3.38163e-14 3.05907e-29 0.001415 
8782 1 0.00995582 -0.0396456 0.0130311 0 0 0 1.07158e-15 4.88847e-16 -0.238233 -6.86264e-19 -3.1307e-19 -0.000290825 1.26241e-14 -2.76727e-14 -1.09226e-27 0.001415 
1765 1 -0.00582286 -0.0341936 0.0137859 0 0 0 1.27233e-15 -3.9816e-16 -0.238233 -1.20052e-21 3.75689e-22 -0.000290825 -1.5999e-14 -5.11251e-14 4.64346e-28 0.001415 
7142 1 -0.0430179 -0.0310366 0.0145031 0 0 0 -9.67351e-16 9.60192e-16 -0.238233 9.12756e-22 -9.06e-22 -0.000290825 2.60948e-14 2.62894e-14 -1.61903e-28 0.001415 
6549 1 -0.00774795 -0.0294214 0.0144712 0 0 0 6.58266e-16 -1.06689e-16 -0.238233 -6.21115e-22 1.00668e-22 -0.000290825 9.09306e-16 5.61035e-15 9.47486e-29 0.001415 
2898 1 -0.0015393 -0.0260351 0.0140581 0 0 0 8.47861e-16 -1.67376e-16 -0.238233 -8.00009e-22 1.5793e-22 -0.000290825 -5.03196e-16 -2.549e-15 -8.95348e-29 0.001415 
2604 1 -0.0264828 -0.0239558 0.0137827 0 0 0 1.67905e-15 -7.31051e-17 -0.238233 1.30832e-17 -5.69636e-19 -0.000290825 -3.14821e-15 -7.23071e-14 -2.14159e-28 0.001415 
7959 1 -0.0480224 -0.0227988 0.0144647 0 0 0 -1.34109e-15 8.36471e-16 -0.238233 1.2654e-21 -7.89262e-22 -0.000290825 2.46528e-14 3.9525e-14 2.38029e-27 0.001415 
8818 1 0.00968245 -0.0211851 0.0140073 0 0 0 4.42902e-17 1.36223e-15 -0.238233 -3.97312e-20 -1.22201e-18 -0.000290825 1.22522e-14 -3.98355e-16 -7.43717e-29 0.001415 
9789 1 -0.0179785 -0.0208985 0.0141233 0 0 0 -9.94904e-16 -1.23713e-15 -0.238233 7.61123e-19 9.46432e-19 -0.000290825 -2.53916e-14 2.04199e-14 -2.03265e-28 0.001415 
4471 1 -0.0206599 -0.0174716 0.0143798 0 0 0 -3.31598e-16 1.1335e-15 -0.238233 3.83733e-19 -1.31171e-18 -0.000290825 5.02447e-15 1.46988e-15 -1.62749e-28 0.001415 
1404 1 0.0175339 -0.0189217 0.0142596 0 0 0 -1.18087e-15 -3.45467e-16 -0.238233 1.29558e-18 3.79024e-19 -0.000290825 -2.20421e-15 7.53444e-15 6.58319e-28 0.001415 
8586 1 -0.0404855 -0.0156313 0.0148695 0 0 0 -5.6221e-17 7.42473e-16 -0.238233 -3.7551e-19 4.95912e-18 -0.000290825 -3.19134e-14 -2.41652e-15 -1.97841e-28 0.001415 
4388 1 -0.00265555 -0.0161876 0.013496 0 0 0 5.59193e-16 -2.726e-16 -0.238233 -3.9054e-19 1.90384e-19 -0.000290825 2.20499e-15 4.52317e-15 1.14542e-29 0.001415 
2097 1 -0.0180782 -0.0116116 0.0137967 0 0 0 1.47478e-15 2.67583e-16 -0.238233 -1.39155e-21 -2.52481e-22 -0.000290825 8.10406e-15 -4.46654e-14 -1.64094e-27 0.001415 
5435 1 0.0233242 -0.0111485 0.0147332 0 0 0 5.38475e-16 -1.02318e-15 -0.238233 -4.91952e-19 9.34783e-19 -0.000290825 -2.41527e-15 -1.27109e-15 -2.98644e-28 0.001415 
9887 1 -0.0551901 -0.00373509 0.0130927 0 0 0 3.87617e-16 -4.84128e-16 -0.238233 -4.0413e-19 5.04751e-19 -0.000290825 6.74406e-15 5.39964e-15 3.18851e-29 0.001415 
4853 1 -0.0586257 -7.65915e-05 0.0139903 0 0 0 7.52016e-16 1.2339e-15 -0.238233 -4.62963e-19 -7.59625e-19 -0.000290825 1.10322e-14 -6.72373e-15 -1.56254e-27 0.001415 
9743 1 -0.0492029 -0.00049722 0.0144955 0 0 0 6.56331e-16 7.47616e-16 -0.238233 -3.01216e-19 -3.4311e-19 -0.000290825 2.40272e-14 -2.10935e-14 1.28089e-27 0.001415 
3403 1 0.0399954 0.00144601 0.0130118 0 0 0 -1.38066e-15 6.53359e-17 -0.238233 -9.38691e-18 4.44209e-19 -0.000290825 2.06442e-15 4.36249e-14 -3.57559e-28 0.001415 
3526 1 0.0549212 0.000551996 0.0133748 0 0 0 -1.47335e-15 -6.70079e-16 -0.238233 1.3902e-21 6.32261e-22 -0.000290825 -2.19839e-14 4.83375e-14 -1.36602e-27 0.001415 
3843 1 -0.0432547 0.00201405 0.0135973 0 0 0 1.21465e-15 8.27619e-16 -0.238233 -1.1461e-21 -7.8091e-22 -0.000290825 1.69878e-14 -2.49321e-14 2.01326e-27 0.001415 
2455 1 0.0236249 0.00314802 0.0149091 0 0 0 1.87848e-16 -1.18132e-16 -0.238233 1.55292e-18 -9.76592e-19 -0.000290825 4.3977e-15 6.99298e-15 -1.57136e-28 0.001415 
6238 1 0.0476834 0.00358837 0.0131328 0 0 0 1.78022e-15 -1.14542e-15 -0.238233 1.06846e-17 -6.87462e-18 -0.000290825 -3.95852e-14 -6.15235e-14 1.15944e-27 0.001415 
7479 1 0.00708078 0.00479504 0.0130396 0 0 0 -7.3931e-16 7.49706e-16 -0.238233 3.8953e-19 -3.95008e-19 -0.000290825 3.08672e-15 3.04392e-15 5.92026e-28 0.001415 
6443 1 -0.0474965 0.00682656 0.0147922 0 0 0 -8.38553e-16 1.02155e-15 -0.238233 8.50137e-19 -1.03567e-18 -0.000290825 1.77147e-14 1.45413e-14 -4.61145e-29 0.001415 
7898 1 0.0197791 0.00861083 0.0141956 0 0 0 2.8641e-16 1.36521e-15 -0.238233 -2.23455e-19 -1.06512e-18 -0.000290825 2.57767e-14 -5.40777e-15 -3.81727e-28 0.001415 
4366 1 0.0434972 0.010956 0.0132107 0 0 0 -8.19267e-16 7.39039e-16 -0.238233 6.85643e-19 -6.185e-19 -0.000290825 4.4088e-15 4.88741e-15 -2.84201e-28 0.001415 
1176 1 0.023371 0.01534 0.014197 0 0 0 1.79913e-17 1.52448e-15 -0.238233 -1.69759e-23 -1.43844e-21 -0.000290825 2.40547e-14 -2.83884e-16 -5.20596e-30 0.001415 
4344 1 0.0486622 0.0138541 0.0135036 0 0 0 -1.31105e-15 -4.60809e-16 -0.238233 7.12071e-19 2.50279e-19 -0.000290825 -4.68725e-15 1.33357e-14 1.07124e-27 0.001415 
5822 1 0.0700663 0.01371 0.0146832 0 0 0 1.10309e-15 -1.06026e-15 -0.238233 -1.04084e-21 1.00042e-21 -0.000290825 -2.641e-14 -2.7477e-14 9.19646e-28 0.001415 
9808 1 -0.0411335 0.0170646 0.0147284 0 0 0 1.0764e-15 -8.87759e-16 -0.238233 -1.01565e-21 8.37655e-22 -0.000290825 -3.42612e-14 -4.15416e-14 2.99058e-27 0.001415 
5629 1 -0.00809486 0.0186934 0.013377 0 0 0 1.57206e-15 2.7501e-17 -0.238233 1.17013e-17 2.04697e-19 -0.000290825 1.32684e-15 -7.58469e-14 2.95963e-28 0.001415 
9993 1 -0.0262716 0.020692 0.0134723 0 0 0 -8.19962e-16 -7.83307e-16 -0.238233 9.41409e-19 8.99325e-19 -0.000290825 -1.42342e-14 1.49003e-14 1.02154e-27 0.001415 
1278 1 -0.00656497 0.0230388 0.0145793 0 0 0 -8.51349e-16 -3.15365e-16 -0.238233 8.95667e-19 3.31782e-19 -0.000290825 6.25931e-15 -1.68974e-14 8.18029e-29 0.001415 
3553 1 0.038325 0.0241144 0.0134745 0 0 0 -1.9677e-16 1.15112e-15 -0.238233 1.37205e-19 -8.02659e-19 -0.000290825 1.76856e-14 3.02314e-15 5.18307e-28 0.001415 
2811 1 0.0616855 0.0236687 0.0130937 0 0 0 2.47213e-16 1.25434e-15 -0.238233 -2.21286e-19 -1.12279e-18 -0.000290825 3.47215e-15 -6.84314e-16 -3.57228e-28 0.001415 
9956 1 0.047731 0.0274693 0.0132891 0 0 0 3.1039e-16 1.72384e-15 -0.238233 2.31077e-18 1.28335e-17 -0.000290825 3.73815e-14 -6.73081e-15 -9.4167e-29 0.001415 
6007 1 0.0347873 0.0296881 0.013059 0 0 0 3.83135e-16 4.29293e-16 -0.238233 -3.61511e-22 -4.05064e-22 -0.000290825 -2.63602e-15 2.35259e-15 1.3357e-29 0.001415 
8774 1 0.0137081 0.0323084 0.0137327 0 0 0 -2.4358e-16 4.09936e-16 -0.238233 1.70089e-19 -2.86254e-19 -0.000290825 -5.20844e-15 -3.09481e-15 -3.26322e-29 0.001415 
6214 1 -0.0224995 0.0352466 0.0141489 0 0 0 -2.84104e-16 -1.32096e-15 -0.238233 1.61888e-19 7.5271e-19 -0.000290825 -3.15118e-14 6.77736e-15 1.15812e-27 0.001415 
7873 1 -0.0162209 0.0354611 0.0133824 0 0 0 5.35374e-16 6.33264e-16 -0.238233 -3.48865e-19 -4.12653e-19 -0.000290825 -7.15594e-15 6.04977e-15 6.02672e-28 0.001415 
6847 1 -0.0500743 0.0395872 0.013539 0 0 0 -1.65022e-15 7.11774e-16 -0.238233 -1.22048e-17 5.26422e-18 -0.000290825 3.74865e-14 8.69108e-14 -3.25506e-27 0.001415 