ITEM: TIMESTEP
165000
ITEM: NUMBER OF ATOMS
10248
ITEM: BOX BOUNDS ff ff ff
-0.2 0.2
-0.2 0.2
-0.01 0.5
ITEM: ATOMS id type x y z ix iy iz vx vy vz fx fy fz omegax omegay omegaz radius 
168 1 0.0236734 -0.0377928 0.00141769 0 0 0 0.0326158 0.435341 0.0107123 -4.32952e-08 -5.77884e-07 -0.000291064 -307.751 23.0567 2.92782e-12 0.001415 
5124 1 -0.00943529 -0.0647942 0.00229231 0 0 0 -1.07554e-17 -3.78585e-18 -0.232351 1.0026e-23 3.52912e-24 -0.000290833 2.43534e-16 -6.91863e-16 1.49148e-32 0.001415 
9891 1 -0.0536741 -0.00562861 0.00217679 0 0 0 7.1261e-18 -8.90038e-18 -0.232351 -6.64284e-24 8.29681e-24 -0.000290833 6.62919e-16 5.30767e-16 -2.89616e-31 0.001415 
8778 1 0.0127785 0.033873 0.0027011 0 0 0 -4.29725e-18 7.23211e-18 -0.232351 4.00584e-24 -6.74167e-24 -0.000290833 -4.43912e-16 -2.63768e-16 3.68612e-31 0.001415 
5123 1 -0.00890863 -0.0646088 0.00506669 0 0 0 9.81901e-18 3.45626e-18 -0.232351 -9.15314e-24 -3.22188e-24 -0.000290833 2.42084e-16 -6.87746e-16 1.7719e-32 0.001415 
167 1 0.0236306 -0.0383641 0.00419703 0 0 0 0.0225725 0.301288 0.0179177 -2.41116e-08 -3.21831e-07 -0.000291069 400.681 -30.0191 1.61882e-11 0.001415 
5439 1 0.0255064 -0.015295 0.00456966 0 0 0 6.69726e-19 -1.27258e-18 -0.232351 -6.24309e-25 1.18628e-24 -0.000290833 -5.23878e-18 -2.75704e-18 2.22086e-33 0.001415 
9890 1 -0.0540531 -0.00515523 0.00494105 0 0 0 -6.21411e-18 7.76132e-18 -0.232351 5.7927e-24 -7.23499e-24 -0.000290833 6.56912e-16 5.25957e-16 -2.89936e-31 0.001415 
4096 1 0.0493328 0.0413049 0.00412167 0 0 0 1.46954e-17 -4.99675e-18 -0.232351 1.20621e-19 -4.10138e-20 -0.000290833 -6.45291e-16 -1.89779e-15 4.29885e-30 0.001415 
4641 1 -0.00200478 0.0474767 0.00479886 0 0 0 -2.10635e-18 1.13418e-18 -0.232351 1.96351e-24 -1.05727e-24 -0.000290833 5.34832e-18 9.9327e-18 -2.46521e-33 0.001415 
166 1 0.0235747 -0.03911 0.00693556 0 0 0 -0.0114054 -0.152234 -0.0579164 9.1081e-09 1.21571e-07 -0.000291003 -76.3174 5.71771 -1.31807e-11 0.001415 
8779 1 0.0136066 -0.0379801 0.00569045 0 0 0 1.14877e-19 5.24063e-20 -0.232351 -1.07087e-25 -4.88524e-26 -0.000290833 -4.07794e-19 8.93904e-19 -5.00735e-34 0.001415 
6552 1 -0.00600865 -0.0297033 0.00630721 0 0 0 7.9413e-19 -1.2871e-19 -0.232351 -7.40276e-25 1.19981e-25 -0.000290833 -4.68451e-19 -2.89031e-18 -2.04084e-34 0.001415 
1407 1 0.0135434 -0.0200891 0.00699855 0 0 0 -6.80073e-19 -1.98957e-19 -0.232351 6.33954e-25 1.85465e-25 -0.000290833 -4.80032e-19 1.64085e-18 -6.54832e-34 0.001415 
4516 1 0.00201022 -0.00437069 0.00572714 0 0 0 -1.07227e-18 1.28008e-18 -0.232351 9.99556e-25 -1.19327e-24 -0.000290833 4.69427e-18 3.93222e-18 -1.24808e-32 0.001415 
5818 1 0.0744051 0.00953964 0.00523659 0 0 0 2.36854e-19 -2.27657e-19 -0.232351 -2.20792e-25 2.12218e-25 -0.000290833 -2.5317e-19 -2.63399e-19 -1.71774e-34 0.001415 
6447 1 -0.0515136 0.0117203 0.00554952 0 0 0 -1.10171e-18 1.34214e-18 -0.232351 1.027e-24 -1.25112e-24 -0.000290833 4.42216e-18 3.62998e-18 -1.38184e-32 0.001415 
4347 1 0.0446345 0.0124385 0.0063063 0 0 0 -7.28259e-19 -2.55969e-19 -0.232351 6.78873e-25 2.3861e-25 -0.000290833 -2.68489e-19 7.63881e-19 -3.25069e-35 0.001415 
9996 1 -0.0293411 0.0177597 0.00626096 0 0 0 -1.75251e-18 -1.67417e-18 -0.232351 1.63366e-24 1.56063e-24 -0.000290833 -7.58279e-18 7.93763e-18 1.0776e-32 0.001415 
1281 1 -0.00910888 0.0220965 0.00667554 0 0 0 -7.20017e-19 -2.66716e-19 -0.232351 6.71189e-25 2.48628e-25 -0.000290833 -8.97934e-19 2.42403e-18 -9.39068e-34 0.001415 
4221 1 0.00751144 0.0235905 0.00561939 0 0 0 3.08428e-20 -2.27948e-19 -0.232351 -2.87512e-26 2.1249e-25 -0.000290833 4.14609e-19 5.60992e-20 1.08544e-34 0.001415 
3550 1 0.0375782 0.0284832 0.00637445 0 0 0 -1.07709e-18 6.30109e-18 -0.232351 1.00405e-24 -5.87378e-24 -0.000290833 3.71244e-17 6.34595e-18 -1.16593e-32 0.001415 
2814 1 0.0624335 0.0274639 0.00567731 0 0 0 1.42411e-19 7.2258e-19 -0.232351 -1.32753e-25 -6.73578e-25 -0.000290833 1.17353e-18 -2.31286e-19 1.95758e-33 0.001415 
8777 1 0.0130109 0.0334818 0.00549428 0 0 0 4.09747e-18 -6.8959e-18 -0.232351 -3.81961e-24 6.42826e-24 -0.000290833 -4.43139e-16 -2.63309e-16 3.68491e-31 0.001415 
484 1 0.0153265 0.0412785 0.00676496 0 0 0 2.8537e-18 -2.41879e-18 -0.232351 -2.66018e-24 2.25476e-24 -0.000290833 -1.26405e-17 -1.49133e-17 1.11455e-32 0.001415 
4097 1 0.0483957 0.0416236 0.00677296 0 0 0 -1.32359e-17 4.50049e-18 -0.232351 -1.20622e-19 4.10142e-20 -0.000290833 -6.46811e-16 -1.90226e-15 4.29739e-30 0.001415 
7350 1 0.0388042 0.0484249 0.00700602 0 0 0 -4.44015e-21 -7.5087e-20 -0.232351 4.13904e-27 6.9995e-26 -0.000290833 2.5954e-19 -1.53475e-20 3.67237e-36 0.001415 
5122 1 -0.00838197 -0.0644234 0.00784107 0 0 0 -3.36056e-20 -1.18291e-20 -0.232351 -1.65597e-20 -5.82896e-21 -0.000290833 7.81963e-17 -2.22151e-16 -7.23953e-30 0.001415 
9219 1 -0.0350531 -0.0474779 0.00856468 0 0 0 0 0 -0.232351 0 0 -0.000290833 0 0 0 0.001415 
8295 1 0.0424827 -0.0477148 0.0088324 0 0 0 0 0 -0.232351 0 0 -0.000290833 0 0 0 0.001415 
8780 1 0.0123897 -0.0385353 0.0081844 0 0 0 3.26812e-17 1.4909e-17 -0.232351 2.81883e-19 1.28593e-19 -0.000290833 -2.71818e-15 5.95838e-15 -7.35818e-30 0.001415 
8589 1 -0.0402517 -0.0187189 0.00710551 0 0 0 5.7817e-20 -7.63552e-19 -0.232351 -5.38962e-26 7.11772e-25 -0.000290833 3.63254e-18 2.7506e-19 -1.53619e-32 0.001415 
5438 1 0.0249608 -0.0142584 0.00714584 0 0 0 1.94281e-16 -3.69163e-16 -0.232351 4.64095e-18 -8.81851e-18 -0.000290833 -6.59093e-15 -3.46864e-15 -3.49418e-29 0.001415 
2100 1 -0.012979 -0.0106864 0.00721316 0 0 0 4.39366e-16 7.97183e-17 -0.232351 1.07911e-17 1.95792e-18 -0.000290833 -1.08334e-15 5.97081e-15 1.15675e-28 0.001415 
9889 1 -0.0544321 -0.00468185 0.00770532 0 0 0 6.60014e-18 -8.24347e-18 -0.232351 1.23478e-18 -1.54222e-18 -0.000290833 -3.87739e-16 -3.10444e-16 -5.78395e-32 0.001415 
4517 1 0.00302288 -0.0055796 0.00807702 0 0 0 1.07227e-18 -1.28008e-18 -0.232351 -9.99556e-25 1.19327e-24 -0.000290833 4.69427e-18 3.93222e-18 -1.24808e-32 0.001415 
7477 1 0.00556963 0.00632744 0.00794592 0 0 0 0 0 -0.232351 0 0 -0.000290833 0 0 0 0.001415 
6446 1 -0.0505093 0.0104969 0.00789548 0 0 0 -3.58752e-18 4.37044e-18 -0.232351 -4.13858e-20 5.04176e-20 -0.000290833 1.30924e-16 1.07471e-16 2.05728e-30 0.001415 
5819 1 0.0733204 0.0105822 0.00763353 0 0 0 -1.81981e-19 1.74914e-19 -0.232351 1.6964e-25 -1.63053e-25 -0.000290833 8.99296e-18 9.35629e-18 3.04908e-31 0.001415 
4368 1 0.0417993 0.0124877 0.00817433 0 0 0 0 0 -0.232351 0 0 -0.000290833 0 0 0 0.001415 
4346 1 0.0459771 0.0129104 0.00875247 0 0 0 -1.21431e-17 -4.26805e-18 -0.232351 -1.14424e-19 -4.02177e-20 -0.000290833 -4.59045e-16 1.30603e-15 -2.07227e-30 0.001415 
9995 1 -0.0283179 0.0187371 0.00871181 0 0 0 1.75251e-18 1.67417e-18 -0.232351 -1.63366e-24 -1.56063e-24 -0.000290833 -7.58279e-18 7.93763e-18 1.0776e-32 0.001415 
4220 1 0.00732219 0.0249892 0.0080723 0 0 0 1.92398e-18 -1.42194e-17 -0.232351 1.85644e-20 -1.37203e-19 -0.000290833 -1.72961e-15 -2.34026e-16 9.29738e-31 0.001415 
2813 1 0.0621842 0.0261988 0.0081965 0 0 0 1.77679e-18 9.01528e-18 -0.232351 1.9627e-20 9.95859e-20 -0.000290833 1.38133e-15 -2.7224e-16 1.27334e-30 0.001415 
3551 1 0.0378271 0.027027 0.0087882 0 0 0 1.07709e-18 -6.30109e-18 -0.232351 -1.00405e-24 5.87378e-24 -0.000290833 3.71244e-17 6.34595e-18 -1.16593e-32 0.001415 
8776 1 0.0132433 0.0330907 0.00828747 0 0 0 -9.78141e-19 1.64617e-18 -0.232351 -1.26065e-20 2.12163e-20 -0.000290833 3.88413e-16 2.30791e-16 9.93032e-31 0.001415 
3969 1 -0.0266131 0.0377733 0.00769278 0 0 0 -1.7904e-17 5.60121e-17 -0.232351 -5.27722e-19 1.65096e-18 -0.000290833 -6.27756e-15 -2.00659e-15 8.81962e-30 0.001415 
7875 1 -0.0151895 0.0366812 0.00809371 0 0 0 4.95382e-18 5.85959e-18 -0.232351 4.59653e-20 5.43697e-20 -0.000290833 8.69432e-16 -7.35036e-16 1.4232e-30 0.001415 
4640 1 -0.000842548 0.0468509 0.00730216 0 0 0 -5.14339e-16 2.76949e-16 -0.232351 -1.15937e-17 6.24273e-18 -0.000290833 -7.48887e-16 -1.3908e-15 3.52955e-29 0.001415 
5121 1 -0.0078553 -0.064238 0.0106154 0 0 0 -2.64033e-17 -9.29388e-18 -0.232351 -5.0678e-19 -1.78385e-19 -0.000290833 -3.06288e-16 8.70144e-16 1.46475e-28 0.001415 
6406 1 -0.013834 -0.0547628 0.0094928 0 0 0 1.82934e-17 -5.33325e-18 -0.232351 1.5201e-19 -4.43168e-20 -0.000290833 -5.22034e-16 -1.79062e-15 5.04684e-30 0.001415 
4747 1 -0.048396 -0.0516837 0.0102816 0 0 0 -5.47223e-17 8.00103e-18 -0.232351 -4.61861e-19 6.75293e-20 -0.000290833 -1.22143e-17 -8.35385e-17 -6.76365e-31 0.001415 
8904 1 0.00698378 -0.051284 0.00980095 0 0 0 0 0 -0.232351 0 0 -0.000290833 0 0 0 0.001415 
9218 1 -0.0344149 -0.0491301 0.0107719 0 0 0 -1.36999e-17 3.54617e-17 -0.232351 -1.93691e-19 5.01363e-19 -0.000290833 -7.15947e-15 -2.76591e-15 -9.53078e-29 0.001415 
8781 1 0.0111727 -0.0390904 0.0106783 0 0 0 -1.47981e-17 -6.75078e-18 -0.232351 4.07297e-19 1.85807e-19 -0.000290833 -4.22786e-15 9.26768e-15 -4.14677e-29 0.001415 
165 1 0.0235426 -0.0395396 0.00973867 0 0 0 -0.00268466 -0.0358336 -0.0132355 1.49491e-09 1.99534e-08 -0.000291042 -10.1225 0.758382 -1.93323e-11 0.001415 
6551 1 -0.00658842 -0.0296093 0.00907559 0 0 0 4.74591e-18 -7.692e-19 -0.232351 4.58215e-20 -7.4266e-21 -0.000290833 -1.05284e-16 -6.49593e-16 2.56077e-31 0.001415 
9787 1 -0.0202299 -0.023698 0.00989075 0 0 0 -8.02118e-18 -9.97409e-18 -0.232351 -7.68135e-20 -9.55151e-20 -0.000290833 -6.11762e-16 4.91981e-16 -1.81182e-29 0.001415 
1406 1 0.0148736 -0.0197 0.00946596 0 0 0 6.80073e-19 1.98957e-19 -0.232351 -6.33954e-25 -1.85465e-25 -0.000290833 -4.80032e-19 1.64085e-18 -6.54832e-34 0.001415 
8588 1 -0.0403296 -0.0176897 0.00974058 0 0 0 7.7094e-18 -1.01813e-16 -0.232351 1.08162e-19 -1.42842e-18 -0.000290833 1.513e-14 1.14566e-15 1.24542e-28 0.001415 
4389 1 -0.00210167 -0.0164576 0.010875 0 0 0 1.74397e-17 -8.50163e-18 -0.232351 3.97939e-19 -1.9399e-19 -0.000290833 8.4422e-17 1.73178e-16 -4.45347e-29 0.001415 
8820 1 0.00980992 -0.0172644 0.0100684 0 0 0 0 0 -0.232351 0 0 -0.000290833 0 0 0 0.001415 
3529 1 0.0670132 -0.0166749 0.0103684 0 0 0 0 0 -0.232351 0 0 -0.000290833 0 0 0 0.001415 
4473 1 -0.0215554 -0.0144106 0.00984505 0 0 0 0 0 -0.232351 0 0 -0.000290833 0 0 0 0.001415 
5437 1 0.0244153 -0.0132218 0.00972202 0 0 0 -1.7226e-16 3.27319e-16 -0.232351 -4.25654e-18 8.08806e-18 -0.000290833 -1.759e-15 -9.25718e-16 1.83257e-29 0.001415 
2099 1 -0.0146787 -0.0109948 0.00945474 0 0 0 -4.17976e-16 -7.58372e-17 -0.232351 -1.02647e-17 -1.86241e-18 -0.000290833 -7.05132e-16 3.88633e-15 7.20621e-29 0.001415 
4518 1 0.00403554 -0.00678852 0.0104269 0 0 0 -3.66656e-17 4.37713e-17 -0.232351 -4.85211e-19 5.79245e-19 -0.000290833 -1.38488e-14 -1.16006e-14 -4.06527e-28 0.001415 
9888 1 -0.0548111 -0.00420847 0.0104696 0 0 0 8.25596e-18 -1.03116e-17 -0.232351 -9.12723e-19 1.13998e-18 -0.000290833 -1.05158e-16 -8.41945e-17 4.88396e-29 0.001415 
3528 1 0.0516347 -0.000942708 0.00915701 0 0 0 -2.03928e-17 -9.27463e-18 -0.232351 -1.68553e-19 -7.66578e-20 -0.000290833 -1.0455e-15 2.29881e-15 -7.13289e-30 0.001415 
2457 1 0.0227749 0.00368251 0.00947999 0 0 0 0 0 -0.232351 0 0 -0.000290833 0 0 0 0.001415 
1470 1 -0.0541433 0.00552442 0.0107171 0 0 0 4.35823e-17 4.19982e-17 -0.232351 5.81199e-19 5.60075e-19 -0.000290833 -1.45903e-14 1.51406e-14 -1.37332e-28 0.001415 
7478 1 0.0063252 0.00556124 0.0105634 0 0 0 -1.03402e-17 1.04856e-17 -0.232351 -3.93585e-19 3.99119e-19 -0.000290833 -5.08786e-16 -5.0173e-16 -9.32551e-29 0.001415 
5545 1 -0.0302182 0.00727945 0.0108575 0 0 0 0 0 -0.232351 0 0 -0.000290833 0 0 0 0.001415 
6445 1 -0.0495051 0.00927345 0.0102414 0 0 0 -5.80205e-19 7.06825e-19 -0.232351 -1.5828e-20 1.92823e-20 -0.000290833 8.48772e-16 6.96723e-16 4.91006e-30 0.001415 
4431 1 -0.0620527 0.012605 0.010236 0 0 0 -5.834e-17 1.24627e-17 -0.232351 -7.5069e-19 1.60364e-19 -0.000290833 -3.08907e-15 -1.44604e-14 3.94587e-30 0.001415 
4367 1 0.0426483 0.0117219 0.0107631 0 0 0 -3.44076e-17 3.10382e-17 -0.232351 -6.98043e-19 6.29685e-19 -0.000290833 -3.78837e-15 -4.19963e-15 -1.45749e-28 0.001415 
5820 1 0.0722357 0.0116248 0.0100305 0 0 0 1.02154e-17 -9.81874e-18 -0.232351 8.51196e-20 -8.18142e-20 -0.000290833 -1.15419e-15 -1.20082e-15 -1.1946e-29 0.001415 
1280 1 -0.00826091 0.0224106 0.00935718 0 0 0 7.20017e-19 2.66716e-19 -0.232351 -6.71189e-25 -2.48628e-25 -0.000290833 -8.97934e-19 2.42403e-18 -9.39068e-34 0.001415 
2812 1 0.0619348 0.0249338 0.0107157 0 0 0 9.40434e-18 4.77168e-17 -0.232351 2.04625e-19 1.03825e-18 -0.000290833 -6.07503e-15 1.19731e-15 -2.5018e-29 0.001415 
4219 1 0.00713294 0.0263879 0.0105252 0 0 0 6.14256e-18 -4.53975e-17 -0.232351 1.23707e-19 -9.14276e-19 -0.000290833 1.01096e-14 1.36789e-15 1.72936e-28 0.001415 
6216 1 -0.023401 0.0310553 0.0105946 0 0 0 -3.18649e-18 -1.48158e-17 -0.232351 -2.84378e-20 -1.32223e-19 -0.000290833 -1.16092e-15 2.49685e-16 3.64144e-30 0.001415 
3968 1 -0.0261983 0.0364757 0.0101733 0 0 0 1.7904e-17 -5.60121e-17 -0.232351 5.27722e-19 -1.65096e-18 -0.000290833 -6.27756e-15 -2.00659e-15 8.81962e-30 0.001415 
7874 1 -0.0157052 0.0360712 0.0108086 0 0 0 4.43471e-18 5.24557e-18 -0.232351 3.08185e-19 3.64535e-19 -0.000290833 6.92617e-16 -5.85552e-16 -1.00501e-28 0.001415 
9745 1 -0.0323504 0.0411674 0.00947962 0 0 0 0 0 -0.232351 0 0 -0.000290833 0 0 0 0.001415 
485 1 0.0142511 0.04219 0.00921885 0 0 0 -2.8537e-18 2.41879e-18 -0.232351 2.66018e-24 -2.25476e-24 -0.000290833 -1.26405e-17 -1.49133e-17 1.11455e-32 0.001415 
4098 1 0.0474587 0.0419422 0.00942424 0 0 0 2.86831e-18 -9.75289e-19 -0.232351 4.16927e-20 -1.41764e-20 -0.000290833 -6.66818e-17 -1.9611e-16 -3.59739e-31 0.001415 
4639 1 0.000319678 0.0462251 0.00980545 0 0 0 4.83037e-16 -2.60094e-16 -0.232351 1.09385e-17 -5.88991e-18 -0.000290833 1.19865e-15 2.22608e-15 8.89639e-29 0.001415 
7349 1 0.0388392 0.0490157 0.00977345 0 0 0 -1.8039e-18 -3.05056e-17 -0.232351 -3.14928e-20 -5.32572e-19 -0.000290833 2.36062e-15 -1.39591e-16 -1.79879e-29 0.001415 
3318 1 0.0108764 -0.0748018 0.0118626 0 0 0 0 0 -0.232351 0 0 -0.000290833 0 0 0 0.001415 
6407 1 -0.0157638 -0.0542001 0.0114848 0 0 0 -1.82934e-17 5.33325e-18 -0.232351 -1.5201e-19 4.43168e-20 -0.000290833 -5.22034e-16 -1.79062e-15 5.04684e-30 0.001415 
4748 1 -0.0463698 -0.05198 0.012235 0 0 0 2.42491e-18 -3.5455e-19 -0.232351 -4.10328e-19 5.99947e-20 -0.000290833 -3.82961e-15 -2.61923e-14 8.23221e-29 0.001415 
8903 1 0.00719176 -0.0530399 0.0120106 0 0 0 -6.0557e-18 5.1125e-17 -0.232351 -1.06593e-19 8.99908e-19 -0.000290833 -1.46113e-14 -1.73069e-15 1.11201e-28 0.001415 
8421 1 -0.0125515 -0.050364 0.0116881 0 0 0 5.36631e-18 -1.43291e-17 -0.232351 2.07069e-19 -5.52916e-19 -0.000290833 2.18528e-15 8.18395e-16 -3.369e-28 0.001415 
5040 1 0.0412118 -0.051077 0.0112652 0 0 0 0 0 -0.232351 0 0 -0.000290833 0 0 0 0.001415 
8294 1 0.0417911 -0.0460756 0.0110332 0 0 0 0 0 -0.232351 0 0 -0.000290833 0 0 0 0.001415 
164 1 0.0235054 -0.0400359 0.0125296 0 0 0 -0.00275488 -0.0367708 0.007964 1.53097e-09 2.04347e-08 -0.000291054 8.21637 -0.615571 -1.82201e-11 0.001415 
7141 1 -0.0440609 -0.0300013 0.0122257 0 0 0 0 0 -0.232351 0 0 -0.000290833 0 0 0 0.001415 
6550 1 -0.00716818 -0.0295154 0.011844 0 0 0 -5.54004e-18 8.9791e-19 -0.232351 -4.58208e-20 7.42648e-21 -0.000290833 -1.04815e-16 -6.46703e-16 2.56281e-31 0.001415 
9788 1 -0.0191042 -0.0222982 0.0120776 0 0 0 -2.4862e-17 -3.09152e-17 -0.232351 -6.90167e-19 -8.58201e-19 -0.000290833 1.20386e-14 -9.68148e-15 5.88824e-28 0.001415 
1405 1 0.0162037 -0.0193109 0.0119334 0 0 0 -7.40217e-17 -2.16552e-17 -0.232351 -1.31918e-18 -3.8593e-19 -0.000290833 4.13896e-15 -1.41478e-14 -3.26962e-28 0.001415 
8819 1 0.00974619 -0.0192248 0.0121084 0 0 0 2.65398e-18 8.16282e-17 -0.232351 4.02202e-20 1.23705e-18 -0.000290833 -1.66969e-14 5.42867e-16 -1.13172e-28 0.001415 
8587 1 -0.0404076 -0.0166605 0.0123756 0 0 0 5.47889e-17 -7.23561e-16 -0.232351 3.59584e-19 -4.74879e-18 -0.000290833 -3.14678e-15 -2.38278e-16 -4.42013e-29 0.001415 
4472 1 -0.0211077 -0.0159411 0.012183 0 0 0 -2.8011e-17 9.57495e-17 -0.232351 -3.90531e-19 1.33495e-18 -0.000290833 -2.21925e-14 -6.4923e-15 -2.91001e-28 0.001415 
5436 1 0.0238697 -0.0121851 0.0122982 0 0 0 4.03534e-18 -7.66774e-18 -0.232351 1.12095e-19 -2.12996e-19 -0.000290833 9.93503e-15 5.22855e-15 1.3444e-28 0.001415 
2098 1 -0.0163785 -0.0113032 0.0116963 0 0 0 -2.13905e-17 -3.88107e-18 -0.232351 -5.26405e-19 -9.55104e-20 -0.000290833 3.78207e-16 -2.08448e-15 -4.36131e-29 0.001415 
4519 1 0.0050482 -0.00799743 0.0127768 0 0 0 -4.7977e-16 5.72749e-16 -0.232351 -3.37024e-18 4.02339e-18 -0.000290833 3.59787e-16 3.0138e-16 9.34191e-28 0.001415 
3527 1 0.053278 -0.000195356 0.0113365 0 0 0 2.03928e-17 9.27463e-18 -0.232351 1.68553e-19 7.66578e-20 -0.000290833 -1.0455e-15 2.29881e-15 -7.13289e-30 0.001415 
4852 1 -0.0576017 0.00160357 0.0120974 0 0 0 2.67679e-17 4.39205e-17 -0.232351 4.65498e-19 7.63784e-19 -0.000290833 -9.10675e-15 5.55022e-15 2.50333e-28 0.001415 
2456 1 0.0231999 0.00341526 0.0122651 0 0 0 -2.9924e-16 1.88184e-16 -0.232351 -1.86703e-18 1.17413e-18 -0.000290833 1.92559e-15 3.06197e-15 -1.02592e-28 0.001415 
6444 1 -0.0485008 0.00805 0.0125874 0 0 0 -3.97585e-17 4.84352e-17 -0.232351 -8.05982e-19 9.81876e-19 -0.000290833 -1.27046e-14 -1.04287e-14 -8.95636e-28 0.001415 
7897 1 0.0202104 0.0106666 0.0124402 0 0 0 1.39608e-17 6.65455e-17 -0.232351 2.24891e-19 1.07197e-18 -0.000290833 -1.95502e-14 4.10149e-15 -5.37787e-30 0.001415 
4430 1 -0.0607358 0.0123237 0.0127251 0 0 0 -7.15908e-16 1.52934e-16 -0.232351 -4.49315e-18 9.59837e-19 -0.000290833 6.60377e-16 3.09133e-15 -8.19714e-29 0.001415 
4345 1 0.0473197 0.0133822 0.0111986 0 0 0 -5.65611e-18 -1.98801e-18 -0.232351 -5.98602e-19 -2.10397e-19 -0.000290833 9.01634e-16 -2.56525e-15 -7.87918e-29 0.001415 
5821 1 0.071151 0.0126674 0.0124274 0 0 0 -1.02703e-17 9.87148e-18 -0.232351 -8.51196e-20 8.18141e-20 -0.000290833 -1.16344e-15 -1.21044e-15 -1.22511e-29 0.001415 
9994 1 -0.0272948 0.0197145 0.0111627 0 0 0 -5.38246e-17 -5.14185e-17 -0.232351 -9.59358e-19 -9.16471e-19 -0.000290833 1.10921e-14 -1.16111e-14 1.63309e-28 0.001415 
1279 1 -0.00741294 0.0227247 0.0120388 0 0 0 -5.73422e-17 -2.12412e-17 -0.232351 -9.2157e-19 -3.41377e-19 -0.000290833 8.11268e-16 -2.19007e-15 -6.87503e-29 0.001415 
3552 1 0.038076 0.0255707 0.011202 0 0 0 -6.0525e-18 3.54077e-17 -0.232351 -1.3861e-19 8.10879e-19 -0.000290833 -8.7946e-15 -1.50333e-15 1.77502e-28 0.001415 
9955 1 0.0480973 0.0295036 0.0114973 0 0 0 0 0 -0.232351 0 0 -0.000290833 0 0 0 0.001415 
6215 1 -0.0229502 0.0331509 0.0124424 0 0 0 -5.71447e-18 -2.65698e-17 -0.232351 -1.32729e-19 -6.17134e-19 -0.000290833 1.95067e-14 -4.19538e-15 -1.55063e-28 0.001415 
8775 1 0.0134757 0.0326995 0.0110807 0 0 0 -6.4108e-18 1.07891e-17 -0.232351 -1.60277e-19 2.6974e-19 -0.000290833 4.20043e-17 2.49585e-17 1.83793e-29 0.001415 
3967 1 -0.0257836 0.0351781 0.0126539 0 0 0 -2.57992e-16 8.07118e-16 -0.232351 -1.67624e-18 5.24407e-18 -0.000290833 6.24011e-15 1.99462e-15 -4.43408e-28 0.001415 
4099 1 0.0465216 0.0422608 0.0120755 0 0 0 6.47175e-18 -2.20054e-18 -0.232351 3.70128e-19 -1.25852e-19 -0.000290833 -1.0327e-16 -3.03717e-16 -5.50626e-29 0.001415 
9746 1 -0.0326219 0.0429159 0.0116883 0 0 0 9.11786e-18 -5.87223e-17 -0.232351 1.55152e-19 -9.99238e-19 -0.000290833 1.60182e-14 2.48715e-15 -1.35836e-28 0.001415 
486 1 0.0131757 0.0431015 0.0116727 0 0 0 6.8245e-17 -5.78444e-17 -0.232351 1.04943e-18 -8.89493e-19 -0.000290833 1.44666e-14 1.70677e-14 -1.50637e-28 0.001415 
4638 1 0.00148191 0.0455993 0.0123088 0 0 0 3.70836e-19 -1.99679e-19 -0.232351 -1.29214e-19 6.95762e-20 -0.000290833 -1.79728e-15 -3.33784e-15 3.5878e-28 0.001415 
7348 1 0.0388741 0.0496065 0.0125409 0 0 0 -3.12802e-17 -5.28976e-16 -0.232351 -2.25773e-19 -3.81804e-18 -0.000290833 7.13761e-15 -4.22071e-16 4.74525e-30 0.001415 
8316 1 0.0241447 0.055508 0.0122403 0 0 0 0 0 -0.232351 0 0 -0.000290833 0 0 0 0.001415 
4831 1 0.0293284 0.0560787 0.0127097 0 0 0 8.06408e-16 -4.48276e-16 -0.232351 5.66894e-18 -3.15132e-18 -0.000290833 -1.29209e-14 -2.32436e-14 -9.76408e-28 0.001415 
6909 1 0.00964204 0.0590336 0.0127438 0 0 0 1.49677e-16 -9.01844e-17 -0.232351 1.83221e-18 -1.10395e-18 -0.000290833 2.32909e-14 3.86554e-14 -9.22219e-28 0.001415 
6048 1 -0.0014895 0.0671831 0.0110879 0 0 0 -6.21776e-17 -3.73639e-18 -0.232351 -1.19416e-18 -7.17595e-20 -0.000290833 6.97619e-16 -1.16091e-14 -5.84396e-29 0.001415 
3317 1 0.00879117 -0.0741345 0.0136557 0 0 0 1.18423e-15 -3.78972e-16 -0.232351 2.70007e-18 -8.64061e-19 -0.000290833 -1.29183e-14 -4.0368e-14 -1.44473e-27 0.001415 
4537 1 0.0348065 -0.0668743 0.0136336 0 0 0 4.52667e-16 -8.81539e-16 -0.232351 7.89252e-19 -1.53702e-18 -0.000290833 8.94912e-15 4.59534e-15 -8.21155e-30 0.001415 
5120 1 -0.00732864 -0.0640527 0.0133898 0 0 0 -5.44924e-16 -1.91812e-16 -0.232351 -3.59479e-19 -1.26536e-19 -0.000290833 2.3718e-15 -6.73814e-15 1.97784e-28 0.001415 
8902 1 0.00739974 -0.0547957 0.0142203 0 0 0 -1.71823e-16 1.45061e-15 -0.232351 -3.36924e-19 2.84446e-18 -0.000290833 1.98412e-14 2.35017e-15 -1.67065e-29 0.001415 
4749 1 -0.0443437 -0.0522762 0.0141884 0 0 0 -1.12161e-15 1.63993e-16 -0.232351 -1.3367e-18 1.95441e-19 -0.000290833 4.95409e-15 3.3883e-14 -1.17758e-28 0.001415 
6408 1 -0.0176936 -0.0536375 0.0134769 0 0 0 1.89095e-15 -5.51287e-16 -0.232351 2.70713e-17 -7.89234e-18 -0.000290833 -1.14413e-14 -3.92446e-14 -1.23288e-27 0.001415 
9217 1 -0.0337766 -0.0507822 0.0129792 0 0 0 -3.01172e-16 7.79574e-16 -0.232351 -1.81735e-18 4.70416e-18 -0.000290833 1.33883e-15 5.1723e-16 9.8208e-28 0.001415 
5039 1 0.0393096 -0.0515993 0.0132944 0 0 0 1.32938e-15 3.65021e-16 -0.232351 1.20667e-17 3.31327e-18 -0.000290833 6.24005e-15 -2.27258e-14 1.41022e-27 0.001415 
8420 1 -0.0130316 -0.0490822 0.014165 0 0 0 4.70814e-16 -1.25717e-15 -0.232351 7.9124e-19 -2.11277e-18 -0.000290833 -1.20074e-14 -4.49681e-15 1.60463e-27 0.001415 
8293 1 0.0410995 -0.0444363 0.013234 0 0 0 5.745e-16 -1.36167e-15 -0.232351 3.53009e-18 -8.36696e-18 -0.000290833 -5.25231e-14 -2.21599e-14 3.67776e-28 0.001415 
8782 1 0.00995582 -0.0396456 0.0131723 0 0 0 1.07606e-15 4.9089e-16 -0.232351 1.16286e-18 5.30489e-19 -0.000290833 1.2745e-14 -2.79376e-14 -1.00234e-27 0.001415 
1765 1 -0.00582286 -0.0341936 0.0139271 0 0 0 1.25686e-15 -3.93319e-16 -0.232351 3.06842e-18 -9.60226e-19 -0.000290833 -1.51596e-14 -4.84428e-14 4.78349e-28 0.001415 
7142 1 -0.0430179 -0.0310366 0.0146442 0 0 0 -9.58108e-16 9.51017e-16 -0.232351 -1.79753e-18 1.78423e-18 -0.000290833 2.42363e-14 2.4417e-14 -1.42697e-28 0.001415 
6549 1 -0.00774795 -0.0294214 0.0146124 0 0 0 6.52731e-16 -1.05792e-16 -0.232351 1.1082e-18 -1.79613e-19 -0.000290833 8.28533e-16 5.11199e-15 8.58112e-29 0.001415 
2898 1 -0.0015393 -0.0260351 0.0141993 0 0 0 8.40154e-16 -1.65855e-16 -0.232351 1.55973e-18 -3.07905e-19 -0.000290833 -4.89547e-16 -2.47986e-15 -7.23297e-29 0.001415 
1113 1 0.057839 -0.0250229 0.0130559 0 0 0 1.32775e-15 6.81194e-16 -0.232351 1.32131e-17 6.7789e-18 -0.000290833 8.52004e-15 -1.66068e-14 4.53989e-28 0.001415 
2604 1 -0.0264828 -0.0239558 0.0139238 0 0 0 1.393e-15 -6.06505e-17 -0.232351 1.46611e-17 -6.38336e-19 -0.000290833 -2.24415e-15 -5.15428e-14 -1.18246e-28 0.001415 
7959 1 -0.0480224 -0.0227988 0.0146059 0 0 0 -1.32242e-15 8.24826e-16 -0.232351 -3.79405e-18 2.36645e-18 -0.000290833 2.2849e-14 3.6633e-14 2.21162e-27 0.001415 
8818 1 0.00968245 -0.0211851 0.0141485 0 0 0 4.45314e-17 1.36965e-15 -0.232351 7.4357e-20 2.28699e-18 -0.000290833 1.57398e-14 -5.11748e-16 -1.95477e-29 0.001415 
9789 1 -0.0179785 -0.0208985 0.0142645 0 0 0 -9.97618e-16 -1.24051e-15 -0.232351 -1.84596e-18 -2.29539e-18 -0.000290833 -2.80854e-14 2.25864e-14 -4.45665e-28 0.001415 
4471 1 -0.0206599 -0.0174716 0.0145209 0 0 0 -3.35826e-16 1.14795e-15 -0.232351 -3.19026e-19 1.09052e-18 -0.000290833 9.69371e-15 2.83584e-15 2.94569e-30 0.001415 
1404 1 0.0175339 -0.0189217 0.0144008 0 0 0 -1.19464e-15 -3.49494e-16 -0.232351 -1.17941e-18 -3.45038e-19 -0.000290833 -3.27118e-15 1.11815e-14 7.87385e-28 0.001415 
3530 1 0.0663652 -0.0174708 0.0130057 0 0 0 7.86478e-16 9.65951e-16 -0.232351 1.6639e-18 2.0436e-18 -0.000290833 5.75278e-15 -4.68392e-15 -9.26997e-28 0.001415 
4388 1 -0.00265555 -0.0161876 0.0136371 0 0 0 5.62803e-16 -2.7436e-16 -0.232351 4.43192e-19 -2.16051e-19 -0.000290833 2.14496e-15 4.40003e-15 3.7425e-29 0.001415 
2097 1 -0.0180782 -0.0116116 0.0139379 0 0 0 1.45917e-15 2.64751e-16 -0.232351 3.19903e-18 5.80429e-19 -0.000290833 7.70959e-15 -4.24913e-14 -1.42792e-27 0.001415 
9887 1 -0.0551901 -0.00373509 0.0132338 0 0 0 3.91755e-16 -4.89295e-16 -0.232351 2.7055e-19 -3.37913e-19 -0.000290833 6.12091e-15 4.90071e-15 1.26961e-29 0.001415 
4853 1 -0.0586257 -7.65915e-05 0.0141315 0 0 0 7.51977e-16 1.23384e-15 -0.232351 1.42068e-18 2.33104e-18 -0.000290833 1.19715e-14 -7.29616e-15 -1.51509e-27 0.001415 
9743 1 -0.0492029 -0.00049722 0.0146367 0 0 0 6.55969e-16 7.47203e-16 -0.232351 9.62368e-19 1.09622e-18 -0.000290833 2.62696e-14 -2.30621e-14 1.03777e-27 0.001415 
9744 1 -0.0476714 0.00124731 0.0130181 0 0 0 1.5987e-17 1.82105e-17 -0.232351 3.00724e-19 3.4255e-19 -0.000290833 -7.78884e-15 6.83781e-15 -1.90892e-29 0.001415 
3403 1 0.0399954 0.00144601 0.013153 0 0 0 -1.17432e-15 5.55714e-17 -0.232351 -1.05894e-17 5.01113e-19 -0.000290833 1.17857e-15 2.49052e-14 -1.8841e-28 0.001415 
3526 1 0.0549212 0.000551996 0.0135159 0 0 0 -1.45622e-15 -6.6229e-16 -0.232351 -3.54331e-18 -1.61149e-18 -0.000290833 -2.06834e-14 4.54781e-14 -1.36447e-27 0.001415 
3843 1 -0.0432547 0.00201405 0.0137385 0 0 0 1.20108e-15 8.18375e-16 -0.232351 2.647e-18 1.80356e-18 -0.000290833 1.55903e-14 -2.2881e-14 1.77713e-27 0.001415 
6238 1 0.0476834 0.00358837 0.013274 0 0 0 1.54617e-15 -9.94832e-16 -0.232351 1.25009e-17 -8.04327e-18 -0.000290833 -2.31681e-14 -3.60079e-14 7.93699e-28 0.001415 
1469 1 -0.0554428 0.00427207 0.0128969 0 0 0 6.26035e-16 6.03281e-16 -0.232351 4.04682e-18 3.89973e-18 -0.000290833 1.05148e-14 -1.09114e-14 -1.07597e-28 0.001415 
7479 1 0.00708078 0.00479504 0.0131808 0 0 0 -7.41421e-16 7.51847e-16 -0.232351 -7.5716e-19 7.67808e-19 -0.000290833 2.59003e-15 2.55412e-15 5.8552e-28 0.001415 
5546 1 -0.0286421 0.00814112 0.0130443 0 0 0 -1.09738e-15 -5.99955e-16 -0.232351 -7.90899e-18 -4.32396e-18 -0.000290833 -1.72031e-14 3.14664e-14 -2.7919e-27 0.001415 
7898 1 0.0197791 0.00861083 0.0143368 0 0 0 2.8712e-16 1.36859e-15 -0.232351 5.37739e-19 2.56319e-18 -0.000290833 3.07178e-14 -6.44437e-15 -4.30141e-28 0.001415 
4366 1 0.0434972 0.010956 0.0133519 0 0 0 -8.26024e-16 7.45134e-16 -0.232351 -7.53292e-19 6.79524e-19 -0.000290833 4.89249e-15 5.42361e-15 -1.5942e-28 0.001415 
1176 1 0.023371 0.01534 0.0143382 0 0 0 1.77867e-17 1.50714e-15 -0.232351 4.17298e-20 3.53594e-18 -0.000290833 2.2286e-14 -2.63011e-16 -3.50689e-30 0.001415 
4344 1 0.0486622 0.0138541 0.0136448 0 0 0 -1.31146e-15 -4.60952e-16 -0.232351 -2.12263e-18 -7.46063e-19 -0.000290833 -5.16773e-15 1.47028e-14 1.05038e-27 0.001415 
5629 1 -0.00809486 0.0186934 0.0135181 0 0 0 1.31577e-15 2.30176e-17 -0.232351 1.31403e-17 2.29872e-19 -0.000290833 9.17947e-16 -5.24733e-14 1.77899e-28 0.001415 
9993 1 -0.0262716 0.020692 0.0136135 0 0 0 -8.31537e-16 -7.94364e-16 -0.232351 -5.57135e-19 -5.3223e-19 -0.000290833 -1.69143e-14 1.77058e-14 1.16771e-27 0.001415 
3553 1 0.038325 0.0241144 0.0136157 0 0 0 -1.97871e-16 1.15757e-15 -0.232351 -1.7625e-19 1.03108e-18 -0.000290833 1.95994e-14 3.35027e-15 4.26697e-28 0.001415 
2811 1 0.0616855 0.0236687 0.0132349 0 0 0 2.48902e-16 1.26291e-15 -0.232351 3.42724e-19 1.73895e-18 -0.000290833 5.67746e-15 -1.11895e-15 -3.4916e-28 0.001415 
4218 1 0.00694369 0.0277865 0.0129781 0 0 0 1.4559e-16 -1.076e-15 -0.232351 6.2826e-19 -4.64325e-18 -0.000290833 -2.39981e-14 -3.24709e-15 7.35656e-29 0.001415 
9956 1 0.047731 0.0274693 0.0134303 0 0 0 2.60382e-16 1.44611e-15 -0.232351 2.67398e-18 1.48507e-17 -0.000290833 2.00757e-14 -3.61477e-15 -8.61791e-29 0.001415 
6007 1 0.0347873 0.0296881 0.0132002 0 0 0 3.80708e-16 4.26574e-16 -0.232351 4.41346e-19 4.94517e-19 -0.000290833 -2.49202e-15 2.22407e-15 1.20691e-29 0.001415 
8774 1 0.0137081 0.0323084 0.0138738 0 0 0 -2.45118e-16 4.12524e-16 -0.232351 -2.05223e-19 3.45382e-19 -0.000290833 -4.99838e-15 -2.96999e-15 -2.70422e-29 0.001415 
6214 1 -0.0224995 0.0352466 0.0142901 0 0 0 -2.83741e-16 -1.31927e-15 -0.232351 -5.7724e-19 -2.68391e-18 -0.000290833 -3.61876e-14 7.78302e-15 1.12981e-27 0.001415 
7873 1 -0.0162209 0.0354611 0.0135235 0 0 0 5.38061e-16 6.36442e-16 -0.232351 4.90745e-19 5.80474e-19 -0.000290833 -7.08093e-15 5.98636e-15 5.42493e-28 0.001415 
6847 1 -0.0500743 0.0395872 0.0136802 0 0 0 -1.38348e-15 5.96724e-16 -0.232351 -1.36782e-17 5.89969e-18 -0.000290833 2.50434e-14 5.80619e-14 -2.51317e-27 0.001415 
487 1 0.0121003 0.044013 0.0141266 0 0 0 8.59966e-16 -7.28907e-16 -0.232351 5.70495e-19 -4.83551e-19 -0.000290833 -9.73399e-15 -1.14842e-14 2.70502e-28 0.001415 
9747 1 -0.0328934 0.0446643 0.0138969 0 0 0 2.24484e-16 -1.44576e-15 -0.232351 3.96489e-19 -2.55353e-18 -0.000290833 -2.49074e-14 -3.86739e-15 2.15974e-28 0.001415 
8988 1 0.0105277 0.0515901 0.0143842 0 0 0 5.18906e-16 -7.34113e-16 -0.232351 6.92798e-19 -9.80125e-19 -0.000290833 -3.10917e-14 -2.19771e-14 -7.14542e-29 0.001415 
8315 1 0.0261215 0.0546907 0.0140932 0 0 0 -1.42517e-15 5.89205e-16 -0.232351 -3.98879e-18 1.64908e-18 -0.000290833 1.03951e-14 2.51437e-14 -6.005e-28 0.001415 
6908 1 0.00786074 0.0601069 0.0146631 0 0 0 1.10244e-15 -6.6425e-16 -0.232351 1.40463e-18 -8.46329e-19 -0.000290833 -6.05282e-15 -1.00457e-14 1.51334e-27 0.001415 
6047 1 -2.16486e-05 0.0672713 0.0135059 0 0 0 -1.39581e-15 -8.38773e-17 -0.232351 -1.99248e-18 -1.19732e-19 -0.000290833 -9.93347e-16 1.65304e-14 1.3838e-28 0.001415 
7455 1 0.00864732 0.0657086 0.0136522 0 0 0 -6.1372e-17 1.45537e-15 -0.232351 -1.44664e-19 3.43056e-18 -0.000290833 1.60579e-14 6.77151e-16 -5.80774e-29 0.001415 
8757 1 0.00829498 0.0765507 0.0130987 0 0 0 0 0 -0.232351 0 0 -0.000290833 0 0 0 0.001415 