ITEM: TIMESTEP
180000
ITEM: NUMBER OF ATOMS
10248
ITEM: BOX BOUNDS ff ff ff
-0.2 0.2
-0.2 0.2
-0.01 0.5
ITEM: ATOMS id type x y z ix iy iz vx vy vz fx fy fz omegax omegay omegaz radius 
168 1 0.0236832 -0.0376622 0.00142046 0 0 0 0.0326154 0.435335 0.00776914 -4.32903e-08 -5.77819e-07 -0.00029106 -307.746 23.0564 2.92777e-12 0.001415 
5124 1 -0.00943529 -0.0647942 0.00222217 0 0 0 -1.07553e-17 -3.78582e-18 -0.235292 1.00871e-23 3.55062e-24 -0.000290829 2.4353e-16 -6.91852e-16 1.49146e-32 0.001415 
9891 1 -0.0536741 -0.00562861 0.00210664 0 0 0 7.12603e-18 -8.90029e-18 -0.235292 -6.68332e-24 8.34735e-24 -0.000290829 6.62908e-16 5.30758e-16 -2.89612e-31 0.001415 
8778 1 0.0127785 0.033873 0.00263095 0 0 0 -4.29721e-18 7.23204e-18 -0.235292 4.03024e-24 -6.78274e-24 -0.000290829 -4.43905e-16 -2.63764e-16 3.68606e-31 0.001415 
5123 1 -0.00890863 -0.0646088 0.00499654 0 0 0 9.81892e-18 3.45623e-18 -0.235292 -9.20891e-24 -3.24151e-24 -0.000290829 2.4208e-16 -6.87734e-16 1.77187e-32 0.001415 
167 1 0.0236374 -0.0382737 0.00420196 0 0 0 0.0225723 0.301285 0.0149745 -2.41043e-08 -3.21733e-07 -0.000291066 400.675 -30.0186 1.61879e-11 0.001415 
5439 1 0.0255064 -0.015295 0.00449952 0 0 0 6.69719e-19 -1.27257e-18 -0.235292 -6.28112e-25 1.19351e-24 -0.000290829 -5.2387e-18 -2.75699e-18 2.22082e-33 0.001415 
9890 1 -0.0540531 -0.00515523 0.0048709 0 0 0 -6.21405e-18 7.76125e-18 -0.235292 5.82799e-24 -7.27907e-24 -0.000290829 6.56902e-16 5.25949e-16 -2.89932e-31 0.001415 
4096 1 0.0493328 0.0413049 0.00405153 0 0 0 1.59053e-17 -5.40815e-18 -0.235292 1.18697e-19 -4.03596e-20 -0.000290829 -7.76218e-16 -2.28285e-15 4.72082e-30 0.001415 
4641 1 -0.00200478 0.0474767 0.00472871 0 0 0 -2.10633e-18 1.13417e-18 -0.235292 1.97548e-24 -1.06371e-24 -0.000290829 5.34824e-18 9.93254e-18 -2.46517e-33 0.001415 
166 1 0.0235713 -0.0391557 0.00691774 0 0 0 -0.0114053 -0.152232 -0.0608589 9.13154e-09 1.21884e-07 -0.000291001 -76.3161 5.71762 -1.31805e-11 0.001415 
8779 1 0.0136066 -0.0379801 0.00562031 0 0 0 2.27093e-19 1.03598e-19 -0.235292 -2.12984e-25 -9.71622e-26 -0.000290829 1.5509e-18 -3.39965e-18 2.49957e-32 0.001415 
6552 1 -0.00600865 -0.0297033 0.00623707 0 0 0 9.24454e-19 -1.49832e-19 -0.235292 -8.67022e-25 1.40524e-25 -0.000290829 -1.49626e-19 -9.23183e-19 -2.17649e-33 0.001415 
1407 1 0.0135434 -0.0200891 0.0069284 0 0 0 -8.62016e-19 -2.52184e-19 -0.235292 8.08462e-25 2.36517e-25 -0.000290829 -5.83724e-19 1.99528e-18 9.84948e-36 0.001415 
4516 1 0.00201022 -0.00437069 0.00565699 0 0 0 -1.24697e-18 1.48864e-18 -0.235292 1.1695e-24 -1.39615e-24 -0.000290829 5.59518e-18 4.68687e-18 -2.89602e-32 0.001415 
5818 1 0.0744051 0.00953964 0.00516644 0 0 0 2.36852e-19 -2.27654e-19 -0.235292 -2.22137e-25 2.13511e-25 -0.000290829 -2.53166e-19 -2.63394e-19 -1.71771e-34 0.001415 
6447 1 -0.0515136 0.0117203 0.00547938 0 0 0 -1.27929e-18 1.55848e-18 -0.235292 1.19982e-24 -1.46166e-24 -0.000290829 3.38246e-18 2.77653e-18 -3.2343e-32 0.001415 
4347 1 0.0446345 0.0124385 0.00623615 0 0 0 -9.14473e-19 -3.21419e-19 -0.235292 8.5766e-25 3.01451e-25 -0.000290829 8.33356e-19 -2.37099e-18 -1.24876e-32 0.001415 
9996 1 -0.0293411 0.0177597 0.00619081 0 0 0 -1.98983e-18 -1.90088e-18 -0.235292 1.86621e-24 1.78279e-24 -0.000290829 -9.27005e-18 9.70384e-18 1.08545e-32 0.001415 
1281 1 -0.00910888 0.0220965 0.00660539 0 0 0 -8.68975e-19 -3.21894e-19 -0.235292 8.14989e-25 3.01896e-25 -0.000290829 -1.07238e-18 2.89497e-18 -1.24273e-33 0.001415 
4221 1 0.00751144 0.0235905 0.00554924 0 0 0 5.01585e-20 -3.70704e-19 -0.235292 -4.70424e-26 3.47673e-25 -0.000290829 3.31775e-18 4.48912e-19 -1.1565e-32 0.001415 
3550 1 0.0375782 0.0284832 0.0063043 0 0 0 -1.26245e-18 7.38548e-18 -0.235292 1.18402e-24 -6.92665e-24 -0.000290829 8.61979e-17 1.47344e-17 -2.39919e-32 0.001415 
2814 1 0.0624335 0.0274639 0.00560716 0 0 0 1.78697e-19 9.06695e-19 -0.235292 -1.67595e-25 -8.50365e-25 -0.000290829 -1.67114e-18 3.29359e-19 1.11999e-32 0.001415 
8777 1 0.0130109 0.0334818 0.00542413 0 0 0 4.05375e-18 -6.8223e-18 -0.235292 -3.8019e-24 6.39846e-24 -0.000290829 -4.42202e-16 -2.62752e-16 3.68194e-31 0.001415 
484 1 0.0153265 0.0412785 0.00669481 0 0 0 3.21062e-18 -2.72132e-18 -0.235292 -3.01116e-24 2.55226e-24 -0.000290829 -1.73284e-17 -2.04441e-17 1.33312e-32 0.001415 
4097 1 0.0483957 0.0416236 0.00670281 0 0 0 -1.42233e-17 4.83625e-18 -0.235292 -1.18699e-19 4.03602e-20 -0.000290829 -7.74823e-16 -2.27874e-15 4.70064e-30 0.001415 
7350 1 0.0388042 0.0484249 0.00693588 0 0 0 -8.37057e-21 -1.41554e-19 -0.235292 7.85054e-27 1.3276e-25 -0.000290829 -2.91747e-18 1.7252e-19 1.45395e-33 0.001415 
5122 1 -0.00838197 -0.0644234 0.00777092 0 0 0 -5.12678e-17 -1.80461e-17 -0.235292 -7.99628e-18 -2.81467e-18 -0.000290829 -2.91603e-17 8.28426e-17 -1.52432e-29 0.001415 
9219 1 -0.0350531 -0.0474779 0.00849454 0 0 0 0 0 -0.235292 0 0 -0.000290829 0 0 0 0.001415 
8295 1 0.0424827 -0.0477148 0.00876225 0 0 0 0 0 -0.235292 0 0 -0.000290829 0 0 0 0.001415 
8780 1 0.0123897 -0.0385353 0.00811425 0 0 0 3.54181e-17 1.61575e-17 -0.235292 2.81635e-19 1.2848e-19 -0.000290829 -2.92253e-15 6.40633e-15 -1.00655e-29 0.001415 
8589 1 -0.0402517 -0.0187189 0.00703536 0 0 0 7.32396e-20 -9.67227e-19 -0.235292 -6.86895e-26 9.07137e-25 -0.000290829 -4.51285e-18 -3.41718e-19 -1.37896e-31 0.001415 
5438 1 0.0249608 -0.0142584 0.00707569 0 0 0 3.12436e-16 -5.93674e-16 -0.235292 1.6318e-17 -3.10067e-17 -0.000290829 -1.3023e-14 -6.85368e-15 -8.46255e-29 0.001415 
2100 1 -0.012979 -0.0106864 0.00714301 0 0 0 7.26259e-16 1.31772e-16 -0.235292 3.98167e-17 7.22431e-18 -0.000290829 -3.53632e-16 1.94904e-15 1.6662e-28 0.001415 
9889 1 -0.0544321 -0.00468185 0.00763517 0 0 0 6.47906e-17 -8.09224e-17 -0.235292 8.6079e-18 -1.07511e-17 -0.000290829 -1.60423e-15 -1.28443e-15 -5.32563e-31 0.001415 
4517 1 0.00302288 -0.0055796 0.00800688 0 0 0 1.24697e-18 -1.48864e-18 -0.235292 -1.1695e-24 1.39615e-24 -0.000290829 5.59518e-18 4.68687e-18 -2.89602e-32 0.001415 
7477 1 0.00556963 0.00632744 0.00787578 0 0 0 0 0 -0.235292 0 0 -0.000290829 0 0 0 0.001415 
6446 1 -0.0505093 0.0104969 0.00782533 0 0 0 -3.82883e-18 4.66441e-18 -0.235292 -4.14742e-20 5.05253e-20 -0.000290829 1.5172e-16 1.24541e-16 2.49326e-30 0.001415 
5819 1 0.0733204 0.0105822 0.00756338 0 0 0 7.89102e-17 -7.58458e-17 -0.235292 1.22264e-17 -1.17516e-17 -0.000290829 -7.91328e-17 -8.23299e-17 6.49818e-30 0.001415 
4368 1 0.0417993 0.0124877 0.00810418 0 0 0 0 0 -0.235292 0 0 -0.000290829 0 0 0 0.001415 
4346 1 0.0459771 0.0129104 0.00868232 0 0 0 -1.31246e-17 -4.61305e-18 -0.235292 -1.16559e-19 -4.09681e-20 -0.000290829 -5.08606e-16 1.44704e-15 -1.14109e-30 0.001415 
9995 1 -0.0283179 0.0187371 0.00864166 0 0 0 1.98983e-18 1.90088e-18 -0.235292 -1.86621e-24 -1.78279e-24 -0.000290829 -9.27005e-18 9.70384e-18 1.08545e-32 0.001415 
4220 1 0.00732219 0.0249892 0.00800215 0 0 0 2.09346e-18 -1.5472e-17 -0.235292 1.87768e-20 -1.38773e-19 -0.000290829 -2.27103e-15 -3.07284e-16 6.88222e-31 0.001415 
2813 1 0.0621842 0.0261988 0.00812635 0 0 0 1.94262e-18 9.85672e-18 -0.235292 2.04918e-20 1.03974e-19 -0.000290829 1.93633e-15 -3.81624e-16 1.67744e-30 0.001415 
3551 1 0.0378271 0.027027 0.00871806 0 0 0 1.26245e-18 -7.38548e-18 -0.235292 -1.18402e-24 6.92665e-24 -0.000290829 8.61979e-17 1.47344e-17 -2.39919e-32 0.001415 
8776 1 0.0132433 0.0330907 0.00821732 0 0 0 -1.06538e-18 1.793e-18 -0.235292 -1.3428e-20 2.25989e-20 -0.000290829 5.34567e-16 3.17635e-16 9.32462e-31 0.001415 
3969 1 -0.0266131 0.0377733 0.00762263 0 0 0 -6.25363e-17 1.95643e-16 -0.235292 -6.77338e-18 2.11903e-17 -0.000290829 -7.02728e-15 -2.24624e-15 1.27624e-29 0.001415 
7875 1 -0.0151895 0.0366812 0.00802356 0 0 0 5.42662e-18 6.41885e-18 -0.235292 4.78818e-20 5.66367e-20 -0.000290829 1.02437e-15 -8.66026e-16 2.74825e-30 0.001415 
4640 1 -0.000842548 0.0468509 0.00723201 0 0 0 -7.82994e-16 4.21608e-16 -0.235292 -3.64231e-17 1.96122e-17 -0.000290829 1.88614e-15 3.50287e-15 -1.23265e-28 0.001415 
5121 1 -0.0078553 -0.064238 0.0105453 0 0 0 1.94599e-17 6.84981e-18 -0.235292 7.44015e-18 2.61891e-18 -0.000290829 -5.06252e-16 1.43823e-15 1.7787e-28 0.001415 
6406 1 -0.013834 -0.0547628 0.00942265 0 0 0 1.98194e-17 -5.77811e-18 -0.235292 1.49807e-19 -4.36745e-20 -0.000290829 -6.23373e-16 -2.13821e-15 7.55156e-30 0.001415 
4747 1 -0.048396 -0.0516837 0.0102114 0 0 0 -5.93686e-17 8.68036e-18 -0.235292 -4.57108e-19 6.68344e-20 -0.000290829 7.14581e-17 4.88731e-16 1.18788e-30 0.001415 
8904 1 0.00698378 -0.051284 0.00973081 0 0 0 0 0 -0.235292 0 0 -0.000290829 0 0 0 0.001415 
9218 1 -0.0344149 -0.0491301 0.0107018 0 0 0 -1.57104e-17 4.06658e-17 -0.235292 -2.04244e-19 5.28679e-19 -0.000290829 -8.86651e-15 -3.42539e-15 -8.24825e-29 0.001415 
8781 1 0.0111727 -0.0390904 0.0106082 0 0 0 -1.06583e-17 -4.86224e-18 -0.235292 4.08812e-19 1.86498e-19 -0.000290829 -4.89557e-15 1.07313e-14 -2.54944e-29 0.001415 
165 1 0.0235418 -0.0395503 0.00973425 0 0 0 -0.00268465 -0.0358334 -0.0161785 1.50069e-09 2.00305e-08 -0.000291041 -10.1224 0.758369 -1.93319e-11 0.001415 
6551 1 -0.00658842 -0.0296093 0.00900545 0 0 0 5.07561e-18 -8.22636e-19 -0.235292 4.51711e-20 -7.32118e-21 -0.000290829 -1.2678e-16 -7.82221e-16 2.63478e-31 0.001415 
9787 1 -0.0202299 -0.023698 0.0098206 0 0 0 -8.81029e-18 -1.09553e-17 -0.235292 -7.92627e-20 -9.85607e-20 -0.000290829 -6.31733e-16 5.08041e-16 -2.80576e-29 0.001415 
1406 1 0.0148736 -0.0197 0.00939582 0 0 0 8.62016e-19 2.52184e-19 -0.235292 -8.08462e-25 -2.36517e-25 -0.000290829 -5.83724e-19 1.99528e-18 9.84948e-36 0.001415 
8588 1 -0.0403296 -0.0176897 0.00967043 0 0 0 8.80211e-18 -1.16244e-16 -0.235292 1.10947e-19 -1.46521e-18 -0.000290829 1.86865e-14 1.41496e-15 1.42847e-28 0.001415 
4389 1 -0.00210167 -0.0164576 0.0108049 0 0 0 2.1455e-17 -1.0459e-17 -0.235292 3.94922e-19 -1.9252e-19 -0.000290829 5.2932e-17 1.08581e-16 -3.99404e-29 0.001415 
8820 1 0.00980992 -0.0172644 0.00999823 0 0 0 0 0 -0.235292 0 0 -0.000290829 0 0 0 0.001415 
3529 1 0.0670132 -0.0166749 0.0102982 0 0 0 0 0 -0.235292 0 0 -0.000290829 0 0 0 0.001415 
4473 1 -0.0215554 -0.0144106 0.0097749 0 0 0 0 0 -0.235292 0 0 -0.000290829 0 0 0 0.001415 
5437 1 0.0244153 -0.0132218 0.00965187 0 0 0 -2.86175e-16 5.43775e-16 -0.235292 -1.58351e-17 3.0089e-17 -0.000290829 -6.67789e-15 -3.5144e-15 2.8652e-29 0.001415 
2099 1 -0.0146787 -0.0109948 0.00938459 0 0 0 -6.9887e-16 -1.26802e-16 -0.235292 -3.9097e-17 -7.09372e-18 -0.000290829 -1.56269e-17 8.61276e-17 1.02643e-28 0.001415 
4518 1 0.00403554 -0.00678852 0.0103568 0 0 0 -4.16927e-17 4.97727e-17 -0.235292 -5.09706e-19 6.08487e-19 -0.000290829 -1.65596e-14 -1.38713e-14 -4.60903e-28 0.001415 
9888 1 -0.0548111 -0.00420847 0.0103994 0 0 0 -4.65595e-17 5.81521e-17 -0.235292 -8.24804e-18 1.03017e-17 -0.000290829 -1.29471e-15 -1.03661e-15 6.40984e-29 0.001415 
3528 1 0.0516347 -0.000942708 0.00908686 0 0 0 -2.20839e-17 -1.00437e-17 -0.235292 -1.65938e-19 -7.54684e-20 -0.000290829 -1.24815e-15 2.7444e-15 -1.23532e-29 0.001415 
2457 1 0.0227749 0.00368251 0.00940984 0 0 0 0 0 -0.235292 0 0 -0.000290829 0 0 0 0.001415 
1470 1 -0.0541433 0.00552442 0.010647 0 0 0 4.96102e-17 4.78071e-17 -0.235292 6.11719e-19 5.89486e-19 -0.000290829 -1.77918e-14 1.84628e-14 -1.53268e-28 0.001415 
7478 1 0.0063252 0.00556124 0.0104932 0 0 0 -1.43224e-17 1.45238e-17 -0.235292 -3.92763e-19 3.98286e-19 -0.000290829 -5.17303e-16 -5.10129e-16 -1.25156e-28 0.001415 
5545 1 -0.0302182 0.00727945 0.0107873 0 0 0 0 0 -0.235292 0 0 -0.000290829 0 0 0 0.001415 
6445 1 -0.0495051 0.00927345 0.0101713 0 0 0 -7.54209e-19 9.18804e-19 -0.235292 -1.88301e-20 2.29395e-20 -0.000290829 1.14401e-15 9.3907e-16 9.04817e-30 0.001415 
4431 1 -0.0620527 0.012605 0.0101658 0 0 0 -6.6099e-17 1.41202e-17 -0.235292 -7.84869e-19 1.67666e-19 -0.000290829 -3.77292e-15 -1.76616e-14 2.76039e-29 0.001415 
4367 1 0.0426483 0.0117219 0.0106929 0 0 0 -4.14594e-17 3.73994e-17 -0.235292 -6.93801e-19 6.25859e-19 -0.000290829 -4.35427e-15 -4.82696e-15 -2.18347e-28 0.001415 
5820 1 0.0722357 0.0116248 0.00996032 0 0 0 -6.78863e-17 6.52501e-17 -0.235292 -1.20921e-17 1.16225e-17 -0.000290829 -1.515e-15 -1.57621e-15 -1.15023e-29 0.001415 
1280 1 -0.00826091 0.0224106 0.00928703 0 0 0 8.68975e-19 3.21894e-19 -0.235292 -8.14989e-25 -3.01896e-25 -0.000290829 -1.07238e-18 2.89497e-18 -1.24273e-33 0.001415 
2812 1 0.0619348 0.0249338 0.0106455 0 0 0 1.14721e-17 5.82084e-17 -0.235292 2.03091e-19 1.03047e-18 -0.000290829 -7.0612e-15 1.39167e-15 -5.7812e-30 0.001415 
4219 1 0.00713294 0.0263879 0.0104551 0 0 0 7.41763e-18 -5.4821e-17 -0.235292 1.28502e-19 -9.4971e-19 -0.000290829 1.31779e-14 1.78305e-15 2.0135e-28 0.001415 
6216 1 -0.023401 0.0310553 0.0105245 0 0 0 -3.47465e-18 -1.61556e-17 -0.235292 -2.8555e-20 -1.32768e-19 -0.000290829 -1.43309e-15 3.0822e-16 3.93239e-30 0.001415 
3968 1 -0.0261983 0.0364757 0.0101032 0 0 0 6.25363e-17 -1.95643e-16 -0.235292 6.77338e-18 -2.11903e-17 -0.000290829 -7.02728e-15 -2.24624e-15 1.27624e-29 0.001415 
7874 1 -0.0157052 0.0360712 0.0107385 0 0 0 7.53912e-18 8.9176e-18 -0.235292 3.04254e-19 3.59884e-19 -0.000290829 9.82499e-16 -8.30625e-16 -1.52622e-28 0.001415 
9745 1 -0.0323504 0.0411674 0.00940947 0 0 0 0 0 -0.235292 0 0 -0.000290829 0 0 0 0.001415 
485 1 0.0142511 0.04219 0.0091487 0 0 0 -3.21062e-18 2.72132e-18 -0.235292 3.01116e-24 -2.55226e-24 -0.000290829 -1.73284e-17 -2.04441e-17 1.33312e-32 0.001415 
4098 1 0.0474587 0.0419422 0.00935409 0 0 0 3.07862e-18 -1.0468e-18 -0.235292 4.39177e-20 -1.4933e-20 -0.000290829 -4.75856e-17 -1.39949e-16 2.39861e-31 0.001415 
4639 1 0.000319678 0.0462251 0.00973531 0 0 0 7.44334e-16 -4.00791e-16 -0.235292 3.55664e-17 -1.9151e-17 -0.000290829 3.84457e-15 7.13998e-15 -4.01376e-29 0.001415 
7349 1 0.0388392 0.0490157 0.00970331 0 0 0 -2.12642e-18 -3.59597e-17 -0.235292 -3.30618e-20 -5.59105e-19 -0.000290829 3.52964e-15 -2.0872e-16 -2.52334e-29 0.001415 
3318 1 0.0108764 -0.0748018 0.0117924 0 0 0 0 0 -0.235292 0 0 -0.000290829 0 0 0 0.001415 
6407 1 -0.0157638 -0.0542001 0.0114147 0 0 0 -1.98194e-17 5.77811e-18 -0.235292 -1.49807e-19 4.36745e-20 -0.000290829 -6.23373e-16 -2.13821e-15 7.55156e-30 0.001415 
4748 1 -0.0463698 -0.05198 0.0121648 0 0 0 -1.78834e-18 2.61476e-19 -0.235292 -4.19445e-19 6.13277e-20 -0.000290829 -4.44869e-15 -3.04264e-14 1.06545e-28 0.001415 
8903 1 0.00719176 -0.0530399 0.0119405 0 0 0 -7.13888e-18 6.02697e-17 -0.235292 -1.07021e-19 9.03522e-19 -0.000290829 -1.71237e-14 -2.02829e-15 1.2637e-28 0.001415 
8421 1 -0.0125515 -0.050364 0.0116179 0 0 0 7.46927e-18 -1.99445e-17 -0.235292 2.07873e-19 -5.55062e-19 -0.000290829 2.84445e-15 1.06526e-15 -4.91918e-28 0.001415 
5040 1 0.0412118 -0.051077 0.011195 0 0 0 0 0 -0.235292 0 0 -0.000290829 0 0 0 0.001415 
8294 1 0.0417911 -0.0460756 0.010963 0 0 0 0 0 -0.235292 0 0 -0.000290829 0 0 0 0.001415 
164 1 0.0235046 -0.0400469 0.0125315 0 0 0 -0.00275486 -0.0367706 0.00502096 1.52825e-09 2.03983e-08 -0.000291052 8.21623 -0.615561 -1.82198e-11 0.001415 
7141 1 -0.0440609 -0.0300013 0.0121555 0 0 0 0 0 -0.235292 0 0 -0.000290829 0 0 0 0.001415 
6550 1 -0.00716818 -0.0295154 0.0117738 0 0 0 -6.00006e-18 9.72469e-19 -0.235292 -4.51703e-20 7.32104e-21 -0.000290829 -1.2663e-16 -7.81298e-16 2.65654e-31 0.001415 
9788 1 -0.0191042 -0.0222982 0.0120075 0 0 0 -3.18565e-17 -3.96126e-17 -0.235292 -6.89026e-19 -8.56782e-19 -0.000290829 1.44884e-14 -1.16516e-14 6.86785e-28 0.001415 
1405 1 0.0162037 -0.0193109 0.0118632 0 0 0 -8.73552e-17 -2.55559e-17 -0.235292 -1.31201e-18 -3.8383e-19 -0.000290829 4.94227e-15 -1.68937e-14 -4.32589e-28 0.001415 
8819 1 0.00974619 -0.0192248 0.0120383 0 0 0 3.06152e-18 9.41626e-17 -0.235292 4.01835e-20 1.23592e-18 -0.000290829 -1.97382e-14 6.41749e-16 -1.49654e-28 0.001415 
8587 1 -0.0404076 -0.0166605 0.0123055 0 0 0 5.80254e-17 -7.66304e-16 -0.235292 3.00978e-19 -3.97482e-18 -0.000290829 -5.97551e-15 -4.52473e-16 -5.02119e-29 0.001415 
4472 1 -0.0211077 -0.0159411 0.0121128 0 0 0 -3.19593e-17 1.09246e-16 -0.235292 -3.88549e-19 1.32817e-18 -0.000290829 -2.59032e-14 -7.57783e-15 -3.71406e-28 0.001415 
5436 1 0.0238697 -0.0121851 0.012228 0 0 0 4.82147e-18 -9.16152e-18 -0.235292 1.27714e-20 -2.42675e-20 -0.000290829 1.19151e-14 6.27064e-15 1.8125e-28 0.001415 
2098 1 -0.0163785 -0.0113032 0.0116262 0 0 0 -2.7389e-17 -4.96943e-18 -0.235292 -7.19712e-19 -1.30584e-19 -0.000290829 3.38005e-16 -1.86291e-15 -6.39769e-29 0.001415 
4519 1 0.0050482 -0.00799743 0.0127066 0 0 0 -5.13247e-16 6.12713e-16 -0.235292 -3.24997e-18 3.87981e-18 -0.000290829 1.43173e-15 1.19931e-15 9.84359e-28 0.001415 
3527 1 0.053278 -0.000195356 0.0112663 0 0 0 2.20839e-17 1.00437e-17 -0.235292 1.65938e-19 7.54684e-20 -0.000290829 -1.24815e-15 2.7444e-15 -1.23532e-29 0.001415 
4852 1 -0.0576017 0.00160357 0.0120273 0 0 0 3.14955e-17 5.16775e-17 -0.235292 4.66866e-19 7.66028e-19 -0.000290829 -1.06435e-14 6.4868e-15 3.87836e-28 0.001415 
2456 1 0.0231999 0.00341526 0.012195 0 0 0 -3.17871e-16 1.99901e-16 -0.235292 -1.81756e-18 1.14302e-18 -0.000290829 2.77346e-15 4.41021e-15 -1.50043e-28 0.001415 
6444 1 -0.0485008 0.00805 0.0125172 0 0 0 -4.78971e-17 5.83499e-17 -0.235292 -7.99704e-19 9.74226e-19 -0.000290829 -1.47902e-14 -1.21406e-14 -1.16472e-27 0.001415 
7897 1 0.0202104 0.0106666 0.0123701 0 0 0 1.62443e-17 7.74301e-17 -0.235292 2.25471e-19 1.07473e-18 -0.000290829 -2.35253e-14 4.93544e-15 4.49736e-29 0.001415 
4430 1 -0.0607358 0.0123237 0.0126549 0 0 0 -7.60517e-16 1.62463e-16 -0.235292 -4.32819e-18 9.24599e-19 -0.000290829 9.53374e-16 4.46289e-15 -7.57743e-29 0.001415 
4345 1 0.0473197 0.0133822 0.0111285 0 0 0 -1.17295e-17 -4.12271e-18 -0.235292 -5.99262e-19 -2.10629e-19 -0.000290829 1.30705e-15 -3.71871e-15 -1.35306e-28 0.001415 
5821 1 0.071151 0.0126674 0.0123573 0 0 0 -1.12607e-17 1.08234e-17 -0.235292 -1.34286e-19 1.29072e-19 -0.000290829 -1.43612e-15 -1.49414e-15 -1.80007e-29 0.001415 
9994 1 -0.0272948 0.0197145 0.0110925 0 0 0 -6.35148e-17 -6.06754e-17 -0.235292 -9.5329e-19 -9.10675e-19 -0.000290829 1.321e-14 -1.38282e-14 4.58996e-29 0.001415 
1279 1 -0.00741294 0.0227247 0.0119687 0 0 0 -6.66172e-17 -2.4677e-17 -0.235292 -9.10205e-19 -3.37167e-19 -0.000290829 6.99991e-16 -1.88967e-15 -8.80361e-29 0.001415 
3552 1 0.038076 0.0255707 0.0111318 0 0 0 -7.45577e-18 4.3617e-17 -0.235292 -1.38436e-19 8.09863e-19 -0.000290829 -1.06199e-14 -1.81533e-15 2.09126e-28 0.001415 
9955 1 0.0480973 0.0295036 0.0114272 0 0 0 0 0 -0.235292 0 0 -0.000290829 0 0 0 0.001415 
6215 1 -0.0229502 0.0331509 0.0123722 0 0 0 -7.06773e-18 -3.28618e-17 -0.235292 -1.33942e-19 -6.2277e-19 -0.000290829 2.32808e-14 -5.00709e-15 -1.92379e-28 0.001415 
8775 1 0.0134757 0.0326995 0.0110105 0 0 0 -8.02537e-18 1.35064e-17 -0.235292 -1.5835e-19 2.66496e-19 -0.000290829 1.82319e-16 1.08332e-16 1.48393e-29 0.001415 
3967 1 -0.0257836 0.0351781 0.0125837 0 0 0 -2.74723e-16 8.59463e-16 -0.235292 -1.63269e-18 5.10781e-18 -0.000290829 9.5932e-15 3.06642e-15 -5.60676e-28 0.001415 
4099 1 0.0465216 0.0422608 0.0120054 0 0 0 1.02061e-17 -3.47031e-18 -0.235292 3.67251e-19 -1.24873e-19 -0.000290829 -1.8497e-16 -5.43994e-16 -1.19757e-28 0.001415 
9746 1 -0.0326219 0.0429159 0.0116181 0 0 0 1.06937e-17 -6.88715e-17 -0.235292 1.55627e-19 -1.0023e-18 -0.000290829 1.8775e-14 2.91521e-15 -1.88082e-28 0.001415 
486 1 0.0131757 0.0431015 0.0116026 0 0 0 7.88398e-17 -6.68246e-17 -0.235292 1.04187e-18 -8.83084e-19 -0.000290829 1.67565e-14 1.97694e-14 -1.93801e-28 0.001415 
4638 1 0.00148191 0.0455993 0.0122386 0 0 0 -2.3261e-19 1.2525e-19 -0.235292 6.91809e-20 -3.72509e-20 -0.000290829 -2.59595e-15 -4.8211e-15 4.67509e-28 0.001415 
7348 1 0.0388741 0.0496065 0.0124707 0 0 0 -3.33929e-17 -5.64704e-16 -0.235292 -1.99938e-19 -3.38114e-18 -0.000290829 6.04191e-15 -3.57279e-16 7.70052e-30 0.001415 
8316 1 0.0241447 0.055508 0.0121702 0 0 0 0 0 -0.235292 0 0 -0.000290829 0 0 0 0.001415 
4831 1 0.0293284 0.0560787 0.0126395 0 0 0 8.62991e-16 -4.7973e-16 -0.235292 5.52174e-18 -3.06949e-18 -0.000290829 -1.57257e-14 -2.82892e-14 -1.01403e-27 0.001415 
6909 1 0.00964204 0.0590336 0.0126736 0 0 0 1.68183e-16 -1.01335e-16 -0.235292 1.82067e-18 -1.097e-18 -0.000290829 2.73089e-14 4.53239e-14 -1.00119e-27 0.001415 
6048 1 -0.0014895 0.0671831 0.0110178 0 0 0 -7.42752e-17 -4.46336e-18 -0.235292 -1.19191e-18 -7.16248e-20 -0.000290829 8.39611e-16 -1.39721e-14 -7.75142e-29 0.001415 
3317 1 0.00879117 -0.0741345 0.0135856 0 0 0 1.21122e-15 -3.87609e-16 -0.235292 2.63668e-18 -8.43776e-19 -0.000290829 -1.55328e-14 -4.85379e-14 -1.51828e-27 0.001415 
4537 1 0.0348065 -0.0668743 0.0135635 0 0 0 4.56673e-16 -8.8934e-16 -0.235292 -4.28302e-22 8.34089e-22 -0.000290829 9.44221e-15 4.84854e-15 -4.63264e-29 0.001415 
5120 1 -0.00732864 -0.0640527 0.0133197 0 0 0 -5.44104e-16 -1.91523e-16 -0.235292 5.56672e-19 1.95947e-19 -0.000290829 2.44296e-15 -6.9403e-15 2.41402e-28 0.001415 
8902 1 0.00739974 -0.0547957 0.0141502 0 0 0 -1.72923e-16 1.4599e-15 -0.235292 1.0719e-19 -9.04947e-19 -0.000290829 1.98792e-14 2.35467e-15 -3.17011e-30 0.001415 
4749 1 -0.0443437 -0.0522762 0.0141182 0 0 0 -1.12381e-15 1.64313e-16 -0.235292 8.77664e-19 -1.28325e-19 -0.000290829 4.65347e-15 3.1827e-14 -1.09431e-28 0.001415 
6408 1 -0.0176936 -0.0536375 0.0134068 0 0 0 2.15402e-15 -6.27982e-16 -0.235292 2.53624e-17 -7.39413e-18 -0.000290829 -1.68717e-14 -5.78713e-14 -1.54583e-27 0.001415 
9217 1 -0.0337766 -0.0507822 0.012909 0 0 0 -3.19254e-16 8.2638e-16 -0.235292 -1.75852e-18 4.55187e-18 -0.000290829 2.97257e-15 1.14839e-15 1.05205e-27 0.001415 
5039 1 0.0393096 -0.0515993 0.0132242 0 0 0 1.44969e-15 3.98056e-16 -0.235292 1.17285e-17 3.22041e-18 -0.000290829 8.84477e-15 -3.2212e-14 1.84756e-27 0.001415 
8420 1 -0.0130316 -0.0490822 0.0140949 0 0 0 4.73619e-16 -1.26466e-15 -0.235292 -2.08324e-19 5.56266e-19 -0.000290829 -1.26348e-14 -4.73177e-15 1.66521e-27 0.001415 
8293 1 0.0410995 -0.0444363 0.0131638 0 0 0 6.0858e-16 -1.44245e-15 -0.235292 3.28086e-18 -7.77626e-18 -0.000290829 -6.60982e-14 -2.78874e-14 2.19794e-28 0.001415 
8782 1 0.00995582 -0.0396456 0.0131021 0 0 0 1.07854e-15 4.92025e-16 -0.235292 -6.91482e-19 -3.1545e-19 -0.000290829 1.30649e-14 -2.86389e-14 -1.12145e-27 0.001415 
1765 1 -0.00582286 -0.0341936 0.013857 0 0 0 1.27234e-15 -3.98164e-16 -0.235292 -1.1933e-21 3.73427e-22 -0.000290829 -1.59992e-14 -5.11259e-14 4.64354e-28 0.001415 
7142 1 -0.0430179 -0.0310366 0.0145741 0 0 0 -9.6736e-16 9.60201e-16 -0.235292 9.07262e-22 -9.00547e-22 -0.000290829 2.60953e-14 2.62898e-14 -1.61906e-28 0.001415 
6549 1 -0.00774795 -0.0294214 0.0145422 0 0 0 6.58272e-16 -1.0669e-16 -0.235292 -6.17377e-22 1.00062e-22 -0.000290829 9.0932e-16 5.61044e-15 9.47502e-29 0.001415 
2898 1 -0.0015393 -0.0260351 0.0141292 0 0 0 8.47869e-16 -1.67377e-16 -0.235292 -7.95194e-22 1.56979e-22 -0.000290829 -5.03205e-16 -2.54904e-15 -8.95363e-29 0.001415 
1113 1 0.057839 -0.0250229 0.0129858 0 0 0 1.45524e-15 7.46605e-16 -0.235292 1.22661e-17 6.29307e-18 -0.000290829 1.13386e-14 -2.21006e-14 4.38335e-28 0.001415 
2604 1 -0.0264828 -0.0239558 0.0138537 0 0 0 1.53925e-15 -6.7018e-17 -0.235292 1.42653e-17 -6.21104e-19 -0.000290829 -2.69144e-15 -6.18162e-14 -1.78812e-28 0.001415 
7959 1 -0.0480224 -0.0227988 0.0145357 0 0 0 -1.3411e-15 8.36478e-16 -0.235292 1.25778e-21 -7.84511e-22 -0.000290829 2.46532e-14 3.95257e-14 2.38033e-27 0.001415 
8818 1 0.00968245 -0.0211851 0.0140784 0 0 0 4.46945e-17 1.37466e-15 -0.235292 -4.02283e-20 -1.2373e-18 -0.000290829 1.51821e-14 -4.93618e-16 -3.38835e-29 0.001415 
9789 1 -0.0179785 -0.0208985 0.0141943 0 0 0 -1.00264e-15 -1.24675e-15 -0.235292 7.69267e-19 9.56559e-19 -0.000290829 -2.77871e-14 2.23465e-14 -3.73081e-28 0.001415 
4471 1 -0.0206599 -0.0174716 0.0144508 0 0 0 -3.35504e-16 1.14685e-15 -0.235292 3.88894e-19 -1.32935e-18 -0.000290829 8.93369e-15 2.6135e-15 -6.39379e-29 0.001415 
1404 1 0.0175339 -0.0189217 0.0143307 0 0 0 -1.19406e-15 -3.49326e-16 -0.235292 1.31321e-18 3.84181e-19 -0.000290829 -3.04413e-15 1.04054e-14 7.9441e-28 0.001415 
3530 1 0.0663652 -0.0174708 0.0129355 0 0 0 8.05931e-16 9.89843e-16 -0.235292 2.07659e-18 2.55047e-18 -0.000290829 6.59079e-15 -5.36622e-15 -7.20765e-28 0.001415 
4388 1 -0.00265555 -0.0161876 0.013567 0 0 0 5.63167e-16 -2.74538e-16 -0.235292 -3.9547e-19 1.92787e-19 -0.000290829 2.2175e-15 4.54883e-15 1.34392e-29 0.001415 
2097 1 -0.0180782 -0.0116116 0.0138677 0 0 0 1.47479e-15 2.67585e-16 -0.235292 -1.38317e-21 -2.50961e-22 -0.000290829 8.10419e-15 -4.46661e-14 -1.64096e-27 0.001415 
9887 1 -0.0551901 -0.00373509 0.0131637 0 0 0 3.91503e-16 -4.88981e-16 -0.235292 -3.60247e-19 4.49943e-19 -0.000290829 6.44921e-15 5.16356e-15 3.90265e-29 0.001415 
4853 1 -0.0586257 -7.65915e-05 0.0140613 0 0 0 7.56721e-16 1.24162e-15 -0.235292 -4.67605e-19 -7.67241e-19 -0.000290829 1.2524e-14 -7.63291e-15 -1.68988e-27 0.001415 
9743 1 -0.0492029 -0.00049722 0.0145665 0 0 0 6.59385e-16 7.51095e-16 -0.235292 -3.02873e-19 -3.44998e-19 -0.000290829 2.57877e-14 -2.2639e-14 1.09992e-27 0.001415 
9744 1 -0.0476714 0.00124731 0.0129479 0 0 0 1.90423e-17 2.16907e-17 -0.235292 3.02237e-19 3.44273e-19 -0.000290829 -9.53139e-15 8.3676e-15 9.40251e-29 0.001415 
3403 1 0.0399954 0.00144601 0.0130829 0 0 0 -1.27993e-15 6.0569e-17 -0.235292 -1.02985e-17 4.87346e-19 -0.000290829 1.60072e-15 3.3826e-14 -2.68756e-28 0.001415 
3526 1 0.0549212 0.000551996 0.0134458 0 0 0 -1.47336e-15 -6.70086e-16 -0.235292 1.38183e-21 6.28456e-22 -0.000290829 -2.19842e-14 4.83383e-14 -1.36604e-27 0.001415 
3843 1 -0.0432547 0.00201405 0.0136683 0 0 0 1.21466e-15 8.27627e-16 -0.235292 -1.1392e-21 -7.76209e-22 -0.000290829 1.6988e-14 -2.49325e-14 2.01329e-27 0.001415 
6238 1 0.0476834 0.00358837 0.0132038 0 0 0 1.66662e-15 -1.07233e-15 -0.235292 1.15781e-17 -7.44954e-18 -0.000290829 -3.09396e-14 -4.80864e-14 8.73657e-28 0.001415 
1469 1 -0.0554428 0.00427207 0.0128268 0 0 0 6.66221e-16 6.42006e-16 -0.235292 3.9006e-18 3.75883e-18 -0.000290829 1.30727e-14 -1.35658e-14 -6.58072e-29 0.001415 
7479 1 0.00708078 0.00479504 0.0131106 0 0 0 -7.43269e-16 7.5372e-16 -0.235292 3.93473e-19 -3.99006e-19 -0.000290829 3.04453e-15 3.00231e-15 6.34949e-28 0.001415 
5546 1 -0.0286421 0.00814112 0.0129742 0 0 0 -1.17629e-15 -6.43096e-16 -0.235292 -7.69773e-18 -4.20846e-18 -0.000290829 -2.11225e-14 3.86353e-14 -3.41764e-27 0.001415 
7898 1 0.0197791 0.00861083 0.0142666 0 0 0 2.88682e-16 1.37603e-15 -0.235292 -2.25757e-19 -1.07609e-18 -0.000290829 2.972e-14 -6.23505e-15 -4.1691e-28 0.001415 
4366 1 0.0434972 0.010956 0.0132817 0 0 0 -8.26246e-16 7.45334e-16 -0.235292 6.94615e-19 -6.26593e-19 -0.000290829 5.03757e-15 5.58444e-15 -2.18226e-28 0.001415 
1176 1 0.023371 0.01534 0.0142681 0 0 0 1.79915e-17 1.52449e-15 -0.235292 -1.68737e-23 -1.42978e-21 -0.000290829 2.40551e-14 -2.83888e-16 -5.20604e-30 0.001415 
4344 1 0.0486622 0.0138541 0.0135747 0 0 0 -1.31828e-15 -4.63348e-16 -0.235292 7.17081e-19 2.5204e-19 -0.000290829 -5.13199e-15 1.46011e-14 1.12553e-27 0.001415 
5629 1 -0.00809486 0.0186934 0.013448 0 0 0 1.44685e-15 2.53106e-17 -0.235292 1.27844e-17 2.23646e-19 -0.000290829 1.11771e-15 -6.38922e-14 2.329e-28 0.001415 
9993 1 -0.0262716 0.020692 0.0135434 0 0 0 -8.29546e-16 -7.92463e-16 -0.235292 9.54128e-19 9.11476e-19 -0.000290829 -1.64533e-14 1.72232e-14 1.23477e-27 0.001415 
3553 1 0.038325 0.0241144 0.0135456 0 0 0 -1.98165e-16 1.15928e-15 -0.235292 1.38629e-19 -8.10992e-19 -0.000290829 1.94297e-14 3.32126e-15 4.796e-28 0.001415 
2811 1 0.0616855 0.0236687 0.0131647 0 0 0 2.49464e-16 1.26576e-15 -0.235292 -2.23829e-19 -1.13569e-18 -0.000290829 5.15881e-15 -1.01673e-15 -3.86735e-28 0.001415 
4218 1 0.00694369 0.0277865 0.012908 0 0 0 1.5125e-16 -1.11784e-15 -0.235292 5.26886e-19 -3.89403e-18 -0.000290829 -2.98681e-14 -4.04134e-15 7.7337e-29 0.001415 
9956 1 0.047731 0.0274693 0.0133602 0 0 0 2.86066e-16 1.58875e-15 -0.235292 2.46742e-18 1.37035e-17 -0.000290829 2.79504e-14 -5.03268e-15 -9.90177e-29 0.001415 
6007 1 0.0347873 0.0296881 0.01313 0 0 0 3.83138e-16 4.29297e-16 -0.235292 -3.59335e-22 -4.02626e-22 -0.000290829 -2.63606e-15 2.35263e-15 1.33572e-29 0.001415 
8774 1 0.0137081 0.0323084 0.0138037 0 0 0 -2.4531e-16 4.12847e-16 -0.235292 1.72016e-19 -2.89497e-19 -0.000290829 -5.17239e-15 -3.07338e-15 -2.56142e-29 0.001415 
6214 1 -0.0224995 0.0352466 0.0142199 0 0 0 -2.85746e-16 -1.32859e-15 -0.235292 1.62775e-19 7.56831e-19 -0.000290829 -3.55992e-14 7.65646e-15 1.19768e-27 0.001415 
7873 1 -0.0162209 0.0354611 0.0134534 0 0 0 5.38921e-16 6.37459e-16 -0.235292 -3.52653e-19 -4.17133e-19 -0.000290829 -7.23788e-15 6.11905e-15 6.32648e-28 0.001415 
6847 1 -0.0500743 0.0395872 0.01361 0 0 0 -1.51987e-15 6.55554e-16 -0.235292 -1.32993e-17 5.73629e-18 -0.000290829 3.1126e-14 7.21641e-14 -2.9382e-27 0.001415 
487 1 0.0121003 0.044013 0.0140565 0 0 0 8.57584e-16 -7.26887e-16 -0.235292 -1.04274e-18 8.83828e-19 -0.000290829 -8.85288e-15 -1.04447e-14 3.10206e-28 0.001415 
9747 1 -0.0328934 0.0446643 0.0138267 0 0 0 2.25701e-16 -1.4536e-15 -0.235292 -1.55849e-19 1.00372e-18 -0.000290829 -2.56091e-14 -3.97635e-15 2.39085e-28 0.001415 
8988 1 0.0105277 0.0515901 0.014314 0 0 0 5.2249e-16 -7.39184e-16 -0.235292 -4.9003e-22 6.93261e-22 -0.000290829 -3.21202e-14 -2.27041e-14 -3.57929e-29 0.001415 
8315 1 0.0261215 0.0546907 0.014023 0 0 0 -1.44452e-15 5.97206e-16 -0.235292 1.35478e-21 -5.60104e-22 -0.000290829 1.11459e-14 2.69597e-14 -7.78346e-28 0.001415 
6908 1 0.00786074 0.0601069 0.014593 0 0 0 1.10009e-15 -6.62834e-16 -0.235292 -1.82186e-18 1.09772e-18 -0.000290829 -3.61927e-15 -6.00681e-15 1.63606e-27 0.001415 
6047 1 -2.16486e-05 0.0672713 0.0134357 0 0 0 -1.39968e-15 -8.41101e-17 -0.235292 1.1933e-18 7.17078e-20 -0.000290829 -1.00244e-15 1.66816e-14 1.43992e-28 0.001415 
7455 1 0.00864732 0.0657086 0.013582 0 0 0 -6.20896e-17 1.47239e-15 -0.235292 5.82322e-23 -1.38092e-21 -0.000290829 1.7887e-14 7.54282e-16 -6.19198e-29 0.001415 
8757 1 0.00829498 0.0765507 0.0130285 0 0 0 0 0 -0.235292 0 0 -0.000290829 0 0 0 0.001415 