ITEM: TIMESTEP
5000
ITEM: NUMBER OF ATOMS
10248
ITEM: BOX BOUNDS ff ff ff
-0.2 0.2
-0.2 0.2
-0.01 0.5
ITEM: ATOMS id type x y z ix iy iz vx vy vz fx fy fz omegax omegay omegaz radius 
5124 1 -0.00943529 -0.0647942 0.00298565 0 0 0 -1.17702e-19 -4.14308e-20 -0.20098 1.02578e-25 3.61072e-26 -0.000290874 7.22484e-20 -2.05253e-19 -2.47864e-33 0.001415 
168 1 0.0236553 -0.0380352 0.00192114 0 0 0 0 0 -0.20098 0 0 -0.000290874 0 0 0 0.001415 
9891 1 -0.0536741 -0.00562861 0.00287012 0 0 0 6.05421e-20 -7.56161e-20 -0.20098 -5.27628e-26 6.58999e-26 -0.000290874 3.45376e-19 2.76525e-19 -3.27331e-34 0.001415 
8778 1 0.0127785 0.033873 0.00339443 0 0 0 -3.65234e-20 6.14676e-20 -0.20098 3.18304e-26 -5.35694e-26 -0.000290874 2.09525e-20 1.24498e-20 1.54237e-35 0.001415 
167 1 0.0236183 -0.0385289 0.00470749 0 0 0 4.2439e-20 5.66456e-19 -0.20098 1.25726e-20 1.67813e-19 -0.000290874 1.55683e-18 -1.16638e-19 1.2682e-34 0.001415 
5439 1 0.0255064 -0.015295 0.00526299 0 0 0 3.84531e-19 -7.30667e-19 -0.20098 1.40936e-19 -2.67799e-19 -0.000290874 -2.61153e-18 -1.37438e-18 1.87689e-33 0.001415 
4096 1 0.0493328 0.0413049 0.004815 0 0 0 4.7962e-19 -1.63081e-19 -0.20098 1.42284e-19 -4.83797e-20 -0.000290874 -6.01627e-20 -1.76938e-19 4.61714e-33 0.001415 
5123 1 -0.00890863 -0.0646088 0.00576002 0 0 0 -4.47155e-19 -1.57397e-19 -0.20098 -2.25488e-19 -7.93712e-20 -0.000290874 -6.37978e-19 1.81245e-18 -8.07761e-34 0.001415 
8779 1 0.0136066 -0.0379801 0.00638378 0 0 0 7.49569e-21 3.41949e-21 -0.20098 -6.53255e-27 -2.98011e-27 -0.000290874 -4.32448e-20 9.47948e-20 -6.40125e-35 0.001415 
6552 1 -0.00600865 -0.0297033 0.00700054 0 0 0 4.55886e-19 -7.38883e-20 -0.20098 1.72939e-19 -2.80294e-20 -0.000290874 -2.30251e-19 -1.42063e-18 7.05398e-35 0.001415 
9890 1 -0.0540531 -0.00515523 0.00563438 0 0 0 5.1301e-19 -6.40741e-19 -0.20098 1.98064e-19 -2.47379e-19 -0.000290874 -2.67274e-18 -2.13994e-18 -3.65156e-34 0.001415 
4516 1 0.00201022 -0.00437069 0.00642047 0 0 0 -6.1957e-19 7.39642e-19 -0.20098 -2.6174e-19 3.12465e-19 -0.000290874 2.34579e-18 1.96498e-18 -2.78722e-33 0.001415 
5818 1 0.0744051 0.00953964 0.00592992 0 0 0 5.67225e-20 -5.45197e-20 -0.20098 8.85001e-21 -8.50633e-21 -0.000290874 -5.6054e-20 -5.83187e-20 -1.10405e-35 0.001415 
6447 1 -0.0515136 0.0117203 0.00624285 0 0 0 -6.35777e-19 7.74526e-19 -0.20098 -2.59648e-19 3.16312e-19 -0.000290874 2.19235e-18 1.79961e-18 -6.45293e-33 0.001415 
4347 1 0.0446345 0.0124385 0.00699963 0 0 0 -3.27928e-19 -1.1526e-19 -0.20098 -1.22967e-19 -4.32203e-20 -0.000290874 -9.17934e-20 2.61162e-19 -2.26966e-34 0.001415 
9996 1 -0.0293411 0.0177597 0.00695429 0 0 0 -1.07177e-18 -1.02386e-18 -0.20098 -3.91668e-19 -3.74159e-19 -0.000290874 -3.85003e-18 4.03019e-18 3.05456e-33 0.001415 
4221 1 0.00751144 0.0235905 0.00631272 0 0 0 6.50549e-21 -4.80797e-20 -0.20098 1.57096e-21 -1.16104e-20 -0.000290874 1.68454e-19 2.27929e-20 5.30155e-35 0.001415 
3550 1 0.0375782 0.0284832 0.00706778 0 0 0 -7.29595e-19 4.2682e-18 -0.20098 -2.38718e-19 1.39652e-18 -0.000290874 1.91095e-17 3.26652e-18 -2.75344e-33 0.001415 
2814 1 0.0624335 0.0274639 0.00637064 0 0 0 6.37942e-20 3.23686e-19 -0.20098 2.28194e-20 1.15784e-19 -0.000290874 4.66443e-19 -9.19296e-20 9.11298e-34 0.001415 
8777 1 0.0130109 0.0334818 0.00618761 0 0 0 -6.38277e-20 1.0742e-19 -0.20098 -3.5218e-20 5.92706e-20 -0.000290874 3.31517e-19 1.96984e-19 -2.44305e-35 0.001415 
4641 1 -0.00200478 0.0474767 0.00549219 0 0 0 -1.30395e-18 7.02122e-19 -0.20098 -4.97264e-19 2.67755e-19 -0.000290874 2.72929e-18 5.06873e-18 -8.36395e-34 0.001415 
5122 1 -0.00838197 -0.0644234 0.0085344 0 0 0 5.49823e-19 1.93536e-19 -0.20098 2.20883e-19 7.77501e-20 -0.000290874 -4.20603e-19 1.19491e-18 -2.50264e-33 0.001415 
8780 1 0.0123897 -0.0385353 0.00887773 0 0 0 1.05366e-18 4.80673e-19 -0.20098 3.14083e-19 1.43283e-19 -0.000290874 1.79126e-18 -3.92653e-18 -4.11797e-34 0.001415 
166 1 0.0235813 -0.0390227 0.00749384 0 0 0 -9.68129e-21 -1.29221e-19 -0.20098 2.2978e-23 3.067e-22 -0.000290874 2.13362e-18 -1.59851e-19 4.32703e-35 0.001415 
1407 1 0.0135434 -0.0200891 0.00769188 0 0 0 -3.05046e-19 -8.92418e-20 -0.20098 -1.21601e-19 -3.55747e-20 -0.000290874 -2.00588e-19 6.85649e-19 -4.74945e-34 0.001415 
8589 1 -0.0402517 -0.0187189 0.00779884 0 0 0 2.38455e-20 -3.14912e-19 -0.20098 1.45261e-20 -1.91836e-19 -0.000290874 2.08371e-18 1.57781e-19 -7.14621e-33 0.001415 
5438 1 0.0249608 -0.0142584 0.00783917 0 0 0 -3.84531e-19 7.30667e-19 -0.20098 -1.40936e-19 2.67799e-19 -0.000290874 -2.61153e-18 -1.37438e-18 1.87689e-33 0.001415 
2100 1 -0.012979 -0.0106864 0.00790649 0 0 0 2.43919e-19 4.42565e-20 -0.20098 7.23081e-20 1.31195e-20 -0.000290874 5.57753e-20 -3.07405e-19 1.71616e-34 0.001415 
9889 1 -0.0544321 -0.00468185 0.00839865 0 0 0 -5.73552e-19 7.16357e-19 -0.20098 -1.98064e-19 2.47379e-19 -0.000290874 -3.01812e-18 -2.41646e-18 -3.78258e-35 0.001415 
4517 1 0.00302288 -0.0055796 0.00877035 0 0 0 6.1957e-19 -7.39642e-19 -0.20098 2.6174e-19 -3.12465e-19 -0.000290874 2.34579e-18 1.96498e-18 -2.78722e-33 0.001415 
7477 1 0.00556963 0.00632744 0.00863925 0 0 0 0 0 -0.20098 0 0 -0.000290874 0 0 0 0.001415 
6446 1 -0.0505093 0.0104969 0.00858881 0 0 0 4.91083e-19 -5.98254e-19 -0.20098 2.16578e-19 -2.63843e-19 -0.000290874 1.41108e-18 1.1583e-18 4.35864e-34 0.001415 
5819 1 0.0733204 0.0105822 0.00832686 0 0 0 -5.67225e-20 5.45197e-20 -0.20098 -8.85001e-21 8.50633e-21 -0.000290874 -5.6054e-20 -5.83187e-20 -1.10405e-35 0.001415 
4368 1 0.0417993 0.0124877 0.00886766 0 0 0 0 0 -0.20098 0 0 -0.000290874 0 0 0 0.001415 
1281 1 -0.00910888 0.0220965 0.00736887 0 0 0 -3.65847e-19 -1.35521e-19 -0.20098 -1.28322e-19 -4.75342e-20 -0.000290874 -4.13686e-19 1.11677e-18 -4.39876e-34 0.001415 
4220 1 0.00732219 0.0249892 0.00876563 0 0 0 5.19293e-20 -3.83791e-19 -0.20098 1.57515e-20 -1.16414e-19 -0.000290874 -4.32984e-19 -5.85854e-20 3.8103e-34 0.001415 
2813 1 0.0621842 0.0261988 0.00888983 0 0 0 -8.64884e-21 -4.38835e-20 -0.20098 -6.45411e-21 -3.27476e-20 -0.000290874 4.04274e-19 -7.96769e-20 -4.23545e-34 0.001415 
8776 1 0.0132433 0.0330907 0.0089808 0 0 0 6.69329e-20 -1.12646e-19 -0.20098 2.52911e-20 -4.2564e-20 -0.000290874 2.07731e-19 1.23432e-19 2.29587e-34 0.001415 
3969 1 -0.0266131 0.0377733 0.00838611 0 0 0 -5.98988e-19 1.87391e-18 -0.20098 -1.77249e-19 5.54518e-19 -0.000290874 7.71517e-18 2.46612e-18 -1.27025e-33 0.001415 
7875 1 -0.0151895 0.0366812 0.00878704 0 0 0 1.59064e-19 1.88148e-19 -0.20098 4.70992e-20 5.57109e-20 -0.000290874 6.54261e-19 -5.53126e-19 -1.39946e-34 0.001415 
484 1 0.0153265 0.0412785 0.00745829 0 0 0 1.85472e-18 -1.57206e-18 -0.20098 6.70428e-19 -5.68254e-19 -0.000290874 -6.50237e-18 -7.67151e-18 5.84673e-33 0.001415 
4097 1 0.0483957 0.0416236 0.00746629 0 0 0 3.88479e-19 -1.32091e-19 -0.20098 1.7635e-19 -5.99628e-20 -0.000290874 -8.10559e-19 -2.38384e-18 3.49825e-33 0.001415 
4640 1 -0.000842548 0.0468509 0.00799549 0 0 0 1.30395e-18 -7.02122e-19 -0.20098 4.97264e-19 -2.67755e-19 -0.000290874 2.72929e-18 5.06873e-18 -8.36395e-34 0.001415 
7350 1 0.0388042 0.0484249 0.00769936 0 0 0 -5.45231e-22 -9.22036e-21 -0.20098 4.75173e-28 8.03561e-27 -0.000290874 6.74266e-20 -3.98716e-21 -2.77588e-36 0.001415 
6406 1 -0.013834 -0.0547628 0.0101861 0 0 0 5.95157e-19 -1.73511e-19 -0.20098 1.7622e-19 -5.13749e-20 -0.000290874 -4.42722e-19 -1.51857e-18 4.09012e-34 0.001415 
4747 1 -0.048396 -0.0516837 0.0109749 0 0 0 -1.76727e-18 2.58395e-19 -0.20098 -5.23225e-19 7.65015e-20 -0.000290874 6.72321e-19 4.59828e-18 2.28706e-33 0.001415 
8904 1 0.00698378 -0.051284 0.0104943 0 0 0 0 0 -0.20098 0 0 -0.000290874 0 0 0 0.001415 
9219 1 -0.0350531 -0.0474779 0.00925802 0 0 0 0 0 -0.20098 0 0 -0.000290874 0 0 0 0.001415 
8295 1 0.0424827 -0.0477148 0.00952573 0 0 0 0 0 -0.20098 0 0 -0.000290874 0 0 0 0.001415 
165 1 0.0235443 -0.0395164 0.0102802 0 0 0 -3.17144e-20 -4.23309e-19 -0.20098 -1.22796e-20 -1.63903e-19 -0.000290874 9.42887e-20 -7.06412e-21 6.57994e-34 0.001415 
6551 1 -0.00658842 -0.0296093 0.00976893 0 0 0 -2.76611e-19 4.48321e-20 -0.20098 -1.19713e-19 1.94027e-20 -0.000290874 -2.03594e-19 -1.25616e-18 -6.01869e-35 0.001415 
9787 1 -0.0202299 -0.023698 0.0105841 0 0 0 -2.48474e-19 -3.0897e-19 -0.20098 -7.35889e-20 -9.15054e-20 -0.000290874 -7.6726e-19 6.17032e-19 -1.5472e-33 0.001415 
1406 1 0.0148736 -0.0197 0.0101593 0 0 0 3.05046e-19 8.92418e-20 -0.20098 1.21601e-19 3.55747e-20 -0.000290874 -2.00588e-19 6.85649e-19 -4.74945e-34 0.001415 
8588 1 -0.0403296 -0.0176897 0.0104339 0 0 0 1.13664e-19 -1.50109e-18 -0.20098 2.61755e-20 -3.45683e-19 -0.000290874 -5.71906e-18 -4.33054e-19 -6.36507e-33 0.001415 
8820 1 0.00980992 -0.0172644 0.0107617 0 0 0 0 0 -0.20098 0 0 -0.000290874 0 0 0 0.001415 
3529 1 0.0670132 -0.0166749 0.0110617 0 0 0 0 0 -0.20098 0 0 -0.000290874 0 0 0 0.001415 
4473 1 -0.0215554 -0.0144106 0.0105384 0 0 0 0 0 -0.20098 0 0 -0.000290874 0 0 0 0.001415 
5437 1 0.0244153 -0.0132218 0.0104153 0 0 0 4.75919e-19 -9.04317e-19 -0.20098 1.40925e-19 -2.67779e-19 -0.000290874 -2.92383e-18 -1.53874e-18 9.82876e-34 0.001415 
2099 1 -0.0146787 -0.0109948 0.0101481 0 0 0 5.68003e-38 -2.4746e-34 -0.20098 -4.95018e-44 -7.37268e-35 -0.000290874 1.11551e-19 -6.1481e-19 -1.85787e-34 0.001415 
3528 1 0.0516347 -0.000942708 0.00985034 0 0 0 -6.66131e-19 -3.02956e-19 -0.20098 -1.97217e-19 -8.96941e-20 -0.000290874 -8.85418e-19 1.94683e-18 2.65781e-33 0.001415 
2457 1 0.0227749 0.00368251 0.0101733 0 0 0 0 0 -0.20098 0 0 -0.000290874 0 0 0 0.001415 
6445 1 -0.0495051 0.00927345 0.0109348 0 0 0 5.74945e-22 -7.00418e-22 -0.20098 3.44216e-22 -4.19336e-22 -0.000290874 -5.52735e-19 -4.53718e-19 6.17557e-33 0.001415 
4431 1 -0.0620527 0.012605 0.0109293 0 0 0 -8.21769e-19 1.75548e-19 -0.20098 -2.4326e-19 5.19658e-20 -0.000290874 6.29927e-19 2.94878e-18 -3.40795e-34 0.001415 
4346 1 0.0459771 0.0129104 0.0094458 0 0 0 -8.64711e-20 -3.03929e-20 -0.20098 1.61087e-22 5.66189e-23 -0.000290874 -3.70148e-19 1.05311e-18 3.77188e-34 0.001415 
5820 1 0.0722357 0.0116248 0.0107238 0 0 0 3.34537e-19 -3.21546e-19 -0.20098 9.9055e-20 -9.52084e-20 -0.000290874 -9.87187e-19 -1.02707e-18 3.87288e-34 0.001415 
9995 1 -0.0283179 0.0187371 0.00940514 0 0 0 1.07177e-18 1.02386e-18 -0.20098 3.91668e-19 3.74159e-19 -0.000290874 -3.85003e-18 4.03019e-18 3.05456e-33 0.001415 
1280 1 -0.00826091 0.0224106 0.0100505 0 0 0 3.65847e-19 1.35521e-19 -0.20098 1.28322e-19 4.75342e-20 -0.000290874 -4.13686e-19 1.11677e-18 -4.39876e-34 0.001415 
3551 1 0.0378271 0.027027 0.00948154 0 0 0 7.29595e-19 -4.2682e-18 -0.20098 2.38718e-19 -1.39652e-18 -0.000290874 1.91095e-17 3.26652e-18 -2.75344e-33 0.001415 
3968 1 -0.0261983 0.0364757 0.0108666 0 0 0 5.98988e-19 -1.87391e-18 -0.20098 1.77249e-19 -5.54518e-19 -0.000290874 7.71517e-18 2.46612e-18 -1.27025e-33 0.001415 
9745 1 -0.0323504 0.0411674 0.010173 0 0 0 0 0 -0.20098 0 0 -0.000290874 0 0 0 0.001415 
485 1 0.0142511 0.04219 0.00991218 0 0 0 -1.85472e-18 1.57206e-18 -0.20098 -6.70428e-19 5.68254e-19 -0.000290874 -6.50237e-18 -7.67151e-18 5.84673e-33 0.001415 
4098 1 0.0474587 0.0419422 0.0101176 0 0 0 -7.32965e-19 2.49224e-19 -0.20098 -2.78373e-19 9.46529e-20 -0.000290874 -4.49182e-19 -1.32104e-18 -3.29766e-33 0.001415 
4639 1 0.000319678 0.0462251 0.0104988 0 0 0 -5.93697e-19 3.1968e-19 -0.20098 -1.75771e-19 9.46448e-20 -0.000290874 1.0857e-18 2.01631e-18 -1.43196e-33 0.001415 
7349 1 0.0388392 0.0490157 0.0104668 0 0 0 -1.36178e-20 -2.30289e-19 -0.20098 -4.19357e-21 -7.09171e-20 -0.000290874 -8.01393e-19 4.73891e-20 2.61972e-35 0.001415 
3318 1 0.0108764 -0.0748018 0.0125559 0 0 0 0 0 -0.20098 0 0 -0.000290874 0 0 0 0.001415 
5121 1 -0.0078553 -0.064238 0.0113088 0 0 0 -1.47414e-19 -5.18891e-20 -0.20098 -4.35004e-20 -1.5312e-20 -0.000290874 9.5392e-20 -2.71002e-19 -4.04549e-33 0.001415 
6407 1 -0.0157638 -0.0542001 0.0121782 0 0 0 -5.95157e-19 1.73511e-19 -0.20098 -1.7622e-19 5.13749e-20 -0.000290874 -4.42722e-19 -1.51857e-18 4.09012e-34 0.001415 
4748 1 -0.0463698 -0.05198 0.0129283 0 0 0 1.31833e-18 -1.92755e-19 -0.20098 3.89758e-19 -5.69871e-20 -0.000290874 5.20667e-19 3.56106e-18 1.06494e-33 0.001415 
8903 1 0.00719176 -0.0530399 0.012704 0 0 0 -2.98184e-20 2.51741e-19 -0.20098 -8.83177e-21 7.45619e-20 -0.000290874 6.21323e-19 7.3595e-20 -3.97068e-34 0.001415 
8421 1 -0.0125515 -0.050364 0.0123814 0 0 0 0 0 -0.20098 0 0 -0.000290874 0 0 0 0.001415 
5040 1 0.0412118 -0.051077 0.0119585 0 0 0 0 0 -0.20098 0 0 -0.000290874 0 0 0 0.001415 
9218 1 -0.0344149 -0.0491301 0.0114653 0 0 0 -9.15096e-20 2.3687e-19 -0.20098 -2.71022e-20 7.01532e-20 -0.000290874 5.88961e-19 2.27533e-19 -5.50616e-34 0.001415 
8294 1 0.0417911 -0.0460756 0.0117265 0 0 0 0 0 -0.20098 0 0 -0.000290874 0 0 0 0.001415 
8781 1 0.0111727 -0.0390904 0.0113717 0 0 0 -1.06115e-18 -4.84092e-19 -0.20098 -3.14083e-19 -1.43283e-19 -0.000290874 1.8345e-18 -4.02132e-18 -3.47784e-34 0.001415 
7141 1 -0.0440609 -0.0300013 0.012919 0 0 0 0 0 -0.20098 0 0 -0.000290874 0 0 0 0.001415 
6550 1 -0.00716818 -0.0295154 0.0125373 0 0 0 -1.79275e-19 2.90562e-20 -0.20098 -5.32261e-20 8.6267e-21 -0.000290874 2.66567e-20 1.6447e-19 -1.30727e-34 0.001415 
9788 1 -0.0191042 -0.0222982 0.012771 0 0 0 2.17183e-19 2.7006e-19 -0.20098 6.42255e-20 7.98624e-20 -0.000290874 -4.7815e-19 3.84529e-19 -1.31124e-33 0.001415 
1405 1 0.0162037 -0.0193109 0.0126267 0 0 0 -6.79439e-19 -1.98771e-19 -0.20098 -2.01144e-19 -5.88449e-20 -0.000290874 -6.83372e-19 2.3359e-18 6.55797e-34 0.001415 
8819 1 0.00974619 -0.0192248 0.0128018 0 0 0 3.25554e-20 1.0013e-18 -0.20098 9.63759e-21 2.96422e-19 -0.000290874 2.84628e-18 -9.25413e-20 -2.82078e-34 0.001415 
4472 1 -0.0211077 -0.0159411 0.0128763 0 0 0 -4.50395e-19 1.53958e-18 -0.20098 -1.33298e-19 4.55652e-19 -0.000290874 5.62221e-18 1.64475e-18 -1.17885e-33 0.001415 
4389 1 -0.00210167 -0.0164576 0.0115684 0 0 0 1.52898e-20 -7.4536e-21 -0.20098 4.53048e-21 -2.20856e-21 -0.000290874 -1.75993e-20 -3.6102e-20 6.75684e-36 0.001415 
2098 1 -0.0163785 -0.0113032 0.0123896 0 0 0 -2.43919e-19 -4.42565e-20 -0.20098 -7.23081e-20 -1.31195e-20 -0.000290874 5.57753e-20 -3.07405e-19 -3.57404e-34 0.001415 
4518 1 0.00403554 -0.00678852 0.0111202 0 0 0 -5.17257e-19 6.175e-19 -0.20098 -1.53129e-19 1.82805e-19 -0.000290874 2.02276e-18 1.69439e-18 -2.34159e-33 0.001415 
9888 1 -0.0548111 -0.00420847 0.0111629 0 0 0 5.43416e-20 -6.78718e-20 -0.20098 1.60949e-20 -2.01023e-20 -0.000290874 -2.10999e-19 -1.68937e-19 -1.7414e-35 0.001415 
3527 1 0.053278 -0.000195356 0.0120298 0 0 0 6.66131e-19 3.02956e-19 -0.20098 1.97217e-19 8.96941e-20 -0.000290874 -8.85418e-19 1.94683e-18 2.65781e-33 0.001415 
4852 1 -0.0576017 0.00160357 0.0127908 0 0 0 1.46815e-19 2.40892e-19 -0.20098 4.34864e-20 7.13521e-20 -0.000290874 5.4261e-19 -3.30701e-19 1.75868e-34 0.001415 
2456 1 0.0231999 0.00341526 0.0129584 0 0 0 -3.91153e-20 2.45985e-20 -0.20098 -1.27104e-19 7.99324e-20 -0.000290874 1.49259e-20 2.37344e-20 -1.50206e-36 0.001415 
1470 1 -0.0541433 0.00552442 0.0114105 0 0 0 5.26835e-19 5.07686e-19 -0.20098 1.55995e-19 1.50325e-19 -0.000290874 1.4608e-18 -1.5159e-18 -3.04745e-33 0.001415 
7478 1 0.0063252 0.00556124 0.0112567 0 0 0 0 0 -0.20098 0 0 -0.000290874 0 0 0 0.001415 
5545 1 -0.0302182 0.00727945 0.0115508 0 0 0 0 0 -0.20098 0 0 -0.000290874 0 0 0 0.001415 
4367 1 0.0426483 0.0117219 0.0114564 0 0 0 -1.21722e-19 1.09802e-19 -0.20098 -3.60549e-20 3.25241e-20 -0.000290874 3.14775e-19 3.48947e-19 -2.83389e-34 0.001415 
4345 1 0.0473197 0.0133822 0.011892 0 0 0 4.14399e-19 1.45653e-19 -0.20098 1.22805e-19 4.31637e-20 -0.000290874 -2.78355e-19 7.91949e-19 6.04154e-34 0.001415 
9994 1 -0.0272948 0.0197145 0.011856 0 0 0 -5.22627e-19 -4.99263e-19 -0.20098 -1.5472e-19 -1.47803e-19 -0.000290874 -1.70571e-18 1.78553e-18 3.54687e-35 0.001415 
1279 1 -0.00741294 0.0227247 0.0127321 0 0 0 -6.31381e-19 -2.33882e-19 -0.20098 -1.86898e-19 -6.92324e-20 -0.000290874 -9.27417e-19 2.50362e-18 -5.57253e-34 0.001415 
2812 1 0.0619348 0.0249338 0.011409 0 0 0 -5.97805e-23 -3.03321e-22 -0.20098 -3.44799e-23 -1.74948e-22 -0.000290874 3.47621e-19 -6.85113e-20 -1.42372e-33 0.001415 
4219 1 0.00713294 0.0263879 0.0112185 0 0 0 -6.7743e-24 5.00664e-23 -0.20098 -3.99822e-24 2.95494e-23 -0.000290874 -1.27847e-18 -1.72986e-19 1.02578e-34 0.001415 
3552 1 0.038076 0.0255707 0.0118953 0 0 0 -6.87156e-21 4.01993e-20 -0.20098 -2.03606e-21 1.19111e-20 -0.000290874 8.29476e-20 1.41789e-20 4.618e-35 0.001415 
9955 1 0.0480973 0.0295036 0.0121907 0 0 0 0 0 -0.20098 0 0 -0.000290874 0 0 0 0.001415 
6216 1 -0.023401 0.0310553 0.011288 0 0 0 -9.95083e-20 -4.6267e-19 -0.20098 -2.9477e-20 -1.37055e-19 -0.000290874 -8.52059e-19 1.83256e-19 -6.53652e-34 0.001415 
8775 1 0.0134757 0.0326995 0.011774 0 0 0 2.69796e-20 -4.54056e-20 -0.20098 8.01217e-21 -1.34842e-20 -0.000290874 -1.44184e-19 -8.56725e-20 9.80487e-35 0.001415 
7874 1 -0.0157052 0.0360712 0.011502 0 0 0 -1.59064e-19 -1.88148e-19 -0.20098 -4.70992e-20 -5.57109e-20 -0.000290874 6.54261e-19 -5.53126e-19 -1.39946e-34 0.001415 
4099 1 0.0465216 0.0422608 0.0127689 0 0 0 -1.35134e-19 4.59485e-20 -0.20098 -4.02609e-20 1.36896e-20 -0.000290874 3.01215e-19 8.85868e-19 -2.17878e-33 0.001415 
9746 1 -0.0326219 0.0429159 0.0123816 0 0 0 5.99192e-20 -3.85901e-19 -0.20098 1.77451e-20 -1.14285e-19 -0.000290874 -1.02077e-18 -1.58495e-19 3.00365e-34 0.001415 
486 1 0.0131757 0.0431015 0.0123661 0 0 0 9.37722e-19 -7.94812e-19 -0.20098 2.77546e-19 -2.35248e-19 -0.000290874 -2.97419e-18 -3.50896e-18 3.75482e-33 0.001415 
8316 1 0.0241447 0.055508 0.0129337 0 0 0 0 0 -0.20098 0 0 -0.000290874 0 0 0 0.001415 
6048 1 -0.0014895 0.0671831 0.0117812 0 0 0 -3.23984e-19 -1.94689e-20 -0.20098 -9.59602e-20 -5.76646e-21 -0.000290874 -5.5368e-20 9.21384e-19 -4.99501e-35 0.001415 
3317 1 0.00879117 -0.0741345 0.014349 0 0 0 2.17707e-19 -6.96691e-20 -0.20098 5.4053e-19 -1.72977e-19 -0.000290874 -3.46762e-20 -1.08358e-19 -1.791e-34 0.001415 
4537 1 0.0348065 -0.0668743 0.014327 0 0 0 2.12223e-20 -4.1329e-20 -0.20098 7.48971e-20 -1.45857e-19 -0.000290874 -2.08019e-20 -1.06817e-20 9.72975e-37 0.001415 
5120 1 -0.00732864 -0.0640527 0.0140831 0 0 0 1.61854e-19 5.69721e-20 -0.20098 4.37204e-20 1.53894e-20 -0.000290874 -1.89931e-19 5.3958e-19 7.06263e-35 0.001415 
4749 1 -0.0443437 -0.0522762 0.0148817 0 0 0 4.4894e-19 -6.56402e-20 -0.20098 1.33467e-19 -1.95144e-20 -0.000290874 -1.51654e-19 -1.03722e-18 -1.22212e-33 0.001415 
6408 1 -0.0176936 -0.0536375 0.0141702 0 0 0 1.94889e-19 -5.68177e-20 -0.20098 5.00244e-19 -1.45841e-19 -0.000290874 -3.04877e-20 -1.04575e-19 3.41724e-36 0.001415 
9217 1 -0.0337766 -0.0507822 0.0136725 0 0 0 9.15096e-20 -2.3687e-19 -0.20098 2.71022e-20 -7.01532e-20 -0.000290874 5.88961e-19 2.27533e-19 -5.50616e-34 0.001415 
5039 1 0.0393096 -0.0515993 0.0139877 0 0 0 2.16464e-20 5.94368e-21 -0.20098 1.26079e-19 3.46189e-20 -0.000290874 -1.11059e-19 4.04468e-19 -1.66938e-33 0.001415 
8420 1 -0.0130316 -0.0490822 0.0148583 0 0 0 2.77893e-21 -7.42029e-21 -0.20098 2.04568e-20 -5.46238e-20 -0.000290874 -8.26286e-22 -3.09447e-22 6.20151e-38 0.001415 
8293 1 0.0410995 -0.0444363 0.0139273 0 0 0 4.47729e-20 -1.0612e-19 -0.20098 1.53249e-19 -3.63229e-19 -0.000290874 1.48755e-19 6.27608e-20 1.74509e-34 0.001415 
8782 1 0.00995582 -0.0396456 0.0138656 0 0 0 0 0 -0.20098 0 0 -0.000290874 0 0 0 0.001415 
164 1 0.0235073 -0.0400101 0.0130665 0 0 0 -1.04336e-21 -1.39262e-20 -0.20098 -3.15927e-22 -4.21685e-21 -0.000290874 -4.82501e-19 3.6149e-20 7.41544e-34 0.001415 
1765 1 -0.00582286 -0.0341936 0.0146205 0 0 0 2.44422e-21 -7.64888e-22 -0.20098 1.81567e-20 -5.68193e-21 -0.000290874 2.76168e-20 8.825e-20 -4.31387e-34 0.001415 
2898 1 -0.0015393 -0.0260351 0.0148926 0 0 0 5.32881e-20 -1.05196e-20 -0.20098 1.87214e-19 -3.69579e-20 -0.000290874 -3.93289e-21 -1.99225e-20 -3.18141e-37 0.001415 
1113 1 0.057839 -0.0250229 0.0137492 0 0 0 2.76505e-20 1.4186e-20 -0.20098 1.33823e-19 6.86573e-20 -0.000290874 3.84443e-21 -7.49335e-21 3.08567e-37 0.001415 
2604 1 -0.0264828 -0.0239558 0.0146172 0 0 0 2.60107e-20 -1.13249e-21 -0.20098 1.52279e-19 -6.63013e-21 -0.000290874 -1.78077e-22 -4.09002e-21 5.05822e-38 0.001415 
8818 1 0.00968245 -0.0211851 0.0148418 0 0 0 -3.24815e-20 -9.9903e-19 -0.20098 -9.08768e-21 -2.79508e-19 -0.000290874 2.7351e-18 -8.89266e-20 -1.28722e-34 0.001415 
3530 1 0.0663652 -0.0174708 0.013699 0 0 0 2.06137e-19 2.53177e-19 -0.20098 4.3985e-19 5.40223e-19 -0.000290874 2.72352e-19 -2.21749e-19 1.18364e-34 0.001415 
8587 1 -0.0404076 -0.0166605 0.013069 0 0 0 -1.3751e-19 1.816e-18 -0.20098 -4.07016e-20 5.37519e-19 -0.000290874 -7.80277e-18 -5.90835e-19 7.81142e-34 0.001415 
4388 1 -0.00265555 -0.0161876 0.0143305 0 0 0 -1.52898e-20 7.4536e-21 -0.20098 -4.53048e-21 2.20856e-21 -0.000290874 -1.75993e-20 -3.6102e-20 6.75684e-36 0.001415 
2097 1 -0.0180782 -0.0116116 0.0146312 0 0 0 1.3738e-20 2.49261e-21 -0.20098 7.24265e-20 1.3141e-20 -0.000290874 5.47271e-22 -3.01628e-21 2.43553e-37 0.001415 
5436 1 0.0238697 -0.0121851 0.0129915 0 0 0 -3.07169e-19 5.83666e-19 -0.20098 -9.08093e-20 1.72551e-19 -0.000290874 -2.47973e-18 -1.30502e-18 -3.25272e-33 0.001415 
4519 1 0.0050482 -0.00799743 0.0134701 0 0 0 5.17257e-19 -6.175e-19 -0.20098 1.53129e-19 -1.82805e-19 -0.000290874 2.02276e-18 1.69439e-18 -2.34159e-33 0.001415 
9887 1 -0.0551901 -0.00373509 0.0139272 0 0 0 -5.3917e-20 6.73414e-20 -0.20098 -1.29644e-20 1.61924e-20 -0.000290874 -2.05942e-19 -1.64887e-19 -8.92603e-36 0.001415 
4853 1 -0.0586257 -7.65915e-05 0.0148248 0 0 0 -1.35318e-19 -2.22029e-19 -0.20098 2.37778e-20 3.90143e-20 -0.000290874 5.01153e-19 -3.05434e-19 8.13888e-35 0.001415 
9744 1 -0.0476714 0.00124731 0.0137114 0 0 0 4.22754e-20 4.81551e-20 -0.20098 1.25259e-20 1.42681e-20 -0.000290874 6.66323e-20 -5.84964e-20 3.46885e-35 0.001415 
3403 1 0.0399954 0.00144601 0.0138463 0 0 0 0 0 -0.20098 0 0 -0.000290874 0 0 0 0.001415 
3526 1 0.0549212 0.000551996 0.0142093 0 0 0 -1.06234e-19 -4.83151e-20 -0.20098 -3.63755e-19 -1.65436e-19 -0.000290874 -2.16486e-20 4.76004e-20 -8.55369e-36 0.001415 
3843 1 -0.0432547 0.00201405 0.0144318 0 0 0 1.65067e-21 1.12471e-21 -0.20098 1.21515e-20 8.27956e-21 -0.000290874 8.41183e-23 -1.23456e-22 -9.2739e-38 0.001415 
6238 1 0.0476834 0.00358837 0.0139673 0 0 0 4.26494e-19 -2.74414e-19 -0.20098 7.43269e-19 -4.78232e-19 -0.000290874 -2.94396e-19 -4.57551e-19 2.83296e-34 0.001415 
1469 1 -0.0554428 0.00427207 0.0135903 0 0 0 -4.89971e-19 -4.72162e-19 -0.20098 9.59208e-22 9.24344e-22 -0.000290874 1.34551e-18 -1.39626e-18 -2.63371e-33 0.001415 
7479 1 0.00708078 0.00479504 0.0138741 0 0 0 -8.41752e-22 8.53589e-22 -0.20098 -6.1966e-21 6.28374e-21 -0.000290874 7.63156e-23 7.52573e-23 -2.42422e-38 0.001415 
6444 1 -0.0485008 0.00805 0.0132807 0 0 0 1.38285e-19 -1.68464e-19 -0.20098 -2.68399e-22 3.26973e-22 -0.000290874 1.91861e-19 1.57491e-19 -7.33271e-34 0.001415 
5546 1 -0.0286421 0.00814112 0.0137377 0 0 0 -2.3889e-19 -1.30605e-19 -0.20098 -5.37004e-19 -2.93588e-19 -0.000290874 -8.39974e-20 1.5364e-19 -1.72309e-34 0.001415 
7897 1 0.0202104 0.0106666 0.0131336 0 0 0 1.33012e-19 6.34015e-19 -0.20098 3.93872e-20 1.87743e-19 -0.000290874 1.51921e-18 -3.18719e-19 2.97934e-34 0.001415 
4366 1 0.0434972 0.010956 0.0140452 0 0 0 1.12191e-19 -1.01204e-19 -0.20098 -1.971e-20 1.77799e-20 -0.000290874 2.90725e-19 3.22286e-19 -2.62999e-34 0.001415 
4430 1 -0.0607358 0.0123237 0.0134184 0 0 0 8.21769e-19 -1.75548e-19 -0.20098 2.4326e-19 -5.19658e-20 -0.000290874 6.29927e-19 2.94878e-18 -3.40795e-34 0.001415 
5821 1 0.071151 0.0126674 0.0131207 0 0 0 -3.34537e-19 3.21546e-19 -0.20098 -9.9055e-20 9.52084e-20 -0.000290874 -9.87187e-19 -1.02707e-18 3.87288e-34 0.001415 
4344 1 0.0486622 0.0138541 0.0143381 0 0 0 -1.98006e-20 -6.95954e-21 -0.20098 -1.23091e-19 -4.3264e-20 -0.000290874 -1.66054e-21 4.72443e-21 -2.35055e-37 0.001415 
5629 1 -0.00809486 0.0186934 0.0142115 0 0 0 2.43359e-21 4.25722e-23 -0.20098 1.79203e-20 3.1349e-22 -0.000290874 -4.90089e-23 2.80153e-21 -2.3277e-37 0.001415 
9993 1 -0.0262716 0.020692 0.0143068 0 0 0 5.22627e-19 4.99263e-19 -0.20098 1.5472e-19 1.47803e-19 -0.000290874 -1.70571e-18 1.78553e-18 3.54687e-35 0.001415 
3553 1 0.038325 0.0241144 0.014309 0 0 0 6.87156e-21 -4.01993e-20 -0.20098 2.03606e-21 -1.19111e-20 -0.000290874 8.29476e-20 1.41789e-20 4.618e-35 0.001415 
2811 1 0.0616855 0.0236687 0.0139282 0 0 0 -5.03533e-20 -2.55488e-19 -0.20098 6.56134e-21 3.32917e-20 -0.000290874 3.43389e-19 -6.76773e-20 1.41939e-34 0.001415 
4218 1 0.00694369 0.0277865 0.0136715 0 0 0 -5.8428e-20 4.3182e-19 -0.20098 -1.73185e-20 1.27995e-19 -0.000290874 -6.77037e-19 -9.16073e-20 -2.25437e-34 0.001415 
9956 1 0.047731 0.0274693 0.0141236 0 0 0 4.10607e-21 2.28042e-20 -0.20098 2.40358e-20 1.3349e-19 -0.000290874 -5.7102e-21 1.02816e-21 -3.84621e-35 0.001415 
6007 1 0.0347873 0.0296881 0.0138935 0 0 0 0 0 -0.20098 0 0 -0.000290874 0 0 0 0.001415 
8774 1 0.0137081 0.0323084 0.0145672 0 0 0 6.17923e-21 -1.03994e-20 -0.20098 3.43952e-24 -5.78859e-24 -0.000290874 -4.29444e-20 -2.55171e-20 -1.71467e-34 0.001415 
6215 1 -0.0229502 0.0331509 0.0131357 0 0 0 6.42439e-20 2.98706e-19 -0.20098 1.90057e-20 8.8368e-20 -0.000290874 -7.21412e-19 1.55157e-19 2.03731e-34 0.001415 
3967 1 -0.0257836 0.0351781 0.0133472 0 0 0 -2.18036e-20 6.82117e-20 -0.20098 -7.69485e-20 2.40731e-19 -0.000290874 3.16774e-20 1.01255e-20 -1.31724e-35 0.001415 
7873 1 -0.0162209 0.0354611 0.0142169 0 0 0 1.63598e-21 1.93511e-21 -0.20098 1.20646e-20 1.42706e-20 -0.000290874 -2.15424e-20 1.82124e-20 -4.9347e-35 0.001415 
6847 1 -0.0500743 0.0395872 0.0143735 0 0 0 -4.04582e-19 1.74505e-19 -0.20098 -7.12289e-19 3.07226e-19 -0.000290874 1.30149e-19 3.01744e-19 6.98046e-34 0.001415 
487 1 0.0121003 0.044013 0.01482 0 0 0 -9.37722e-19 7.94812e-19 -0.20098 -2.77546e-19 2.35248e-19 -0.000290874 -2.97419e-18 -3.50896e-18 3.75482e-33 0.001415 
9747 1 -0.0328934 0.0446643 0.0145902 0 0 0 -5.6868e-20 3.6625e-19 -0.20098 1.00468e-22 -6.4705e-22 -0.000290874 -9.46357e-19 -1.46942e-19 2.99555e-34 0.001415 
4638 1 0.00148191 0.0455993 0.0130021 0 0 0 5.61202e-19 -3.02182e-19 -0.20098 1.66019e-19 -8.93941e-20 -0.000290874 7.79602e-19 1.44785e-18 -1.62236e-33 0.001415 
7348 1 0.0388741 0.0496065 0.0132342 0 0 0 1.396e-20 2.36076e-19 -0.20098 2.69729e-21 4.56136e-20 -0.000290874 -8.4548e-19 4.99961e-20 3.12641e-35 0.001415 
8315 1 0.0261215 0.0546907 0.0147865 0 0 0 -1.56113e-19 6.45417e-20 -0.20098 -4.37555e-19 1.80897e-19 -0.000290874 2.9726e-20 7.19012e-20 4.88483e-35 0.001415 
4831 1 0.0293284 0.0560787 0.013403 0 0 0 1.4352e-20 -7.97814e-21 -0.20098 8.40231e-20 -4.67077e-20 -0.000290874 -1.87978e-21 -3.38156e-21 8.97505e-37 0.001415 
6909 1 0.00964204 0.0590336 0.0134371 0 0 0 3.14249e-18 -1.89343e-18 -0.20098 9.29794e-19 -5.60226e-19 -0.000290874 -6.23225e-18 -1.03435e-17 -1.96586e-32 0.001415 
6047 1 -2.16486e-05 0.0672713 0.0141992 0 0 0 2.82397e-19 1.69699e-20 -0.20098 -8.11382e-20 -4.87577e-21 -0.000290874 -5.08291e-20 8.45852e-19 -3.67219e-35 0.001415 
7455 1 0.00864732 0.0657086 0.0143455 0 0 0 -8.73384e-23 2.07114e-21 -0.20098 -6.46382e-22 1.53283e-20 -0.000290874 -5.4728e-20 -2.30784e-21 -3.27876e-35 0.001415 
8757 1 0.00829498 0.0765507 0.013792 0 0 0 0 0 -0.20098 0 0 -0.000290874 0 0 0 0.001415 
3316 1 0.00670592 -0.0734672 0.0161422 0 0 0 -2.17707e-19 6.96691e-20 -0.20098 -5.4053e-19 1.72977e-19 -0.000290874 -3.46762e-20 -1.08358e-19 -1.791e-34 0.001415 
2499 1 0.0564696 -0.0568217 0.0162891 0 0 0 3.21435e-19 -7.35418e-19 -0.20098 9.52697e-20 -2.1797e-19 -0.000290874 -9.95971e-19 -4.35317e-19 5.21129e-34 0.001415 
8902 1 0.00739974 -0.0547957 0.0149136 0 0 0 2.86021e-20 -2.41472e-19 -0.20098 -1.46265e-22 1.23484e-21 -0.000290874 4.81004e-19 5.69744e-20 -4.3783e-34 0.001415 
4054 1 -0.0359786 -0.0521436 0.0165757 0 0 0 0 0 -0.20098 0 0 -0.000290874 0 0 0 0.001415 
9216 1 -0.0331383 -0.0524344 0.0158798 0 0 0 -2.59259e-19 6.71085e-19 -0.20098 -7.69128e-20 1.99086e-19 -0.000290874 1.58348e-19 6.11744e-20 -6.12591e-33 0.001415 
6409 1 -0.0196234 -0.0530749 0.0161623 0 0 0 -1.94889e-19 5.68177e-20 -0.20098 -5.00244e-19 1.45841e-19 -0.000290874 -3.04877e-20 -1.04575e-19 3.41724e-36 0.001415 
5038 1 0.0374074 -0.0521216 0.0160169 0 0 0 2.15843e-18 5.92662e-19 -0.20098 5.19097e-19 1.42534e-19 -0.000290874 1.82424e-18 -6.64377e-18 1.37526e-33 0.001415 
8292 1 0.0404079 -0.0427971 0.0161281 0 0 0 1.68769e-19 -4.00015e-19 -0.20098 -8.99329e-20 2.13158e-19 -0.000290874 -4.93021e-19 -2.08009e-19 4.27237e-34 0.001415 
163 1 0.0234703 -0.0405039 0.0158529 0 0 0 1.02675e-21 1.37046e-20 -0.20098 3.05909e-22 4.08314e-21 -0.000290874 -9.76292e-20 7.31439e-21 1.84373e-34 0.001415 
8783 1 0.00873888 -0.0402008 0.0163596 0 0 0 1.74636e-19 7.96678e-20 -0.20098 5.17698e-20 2.36171e-20 -0.000290874 1.11707e-19 -2.44867e-19 2.78773e-35 0.001415 
1766 1 -0.00794199 -0.0335305 0.016375 0 0 0 1.84531e-18 -5.77468e-19 -0.20098 5.28718e-19 -1.65456e-19 -0.000290874 -1.51908e-18 -4.85424e-18 9.53212e-34 0.001415 
7142 1 -0.0430179 -0.0310366 0.0153376 0 0 0 0 0 -0.20098 0 0 -0.000290874 0 0 0 0.001415 
6549 1 -0.00774795 -0.0294214 0.0153057 0 0 0 8.57777e-21 -1.39025e-21 -0.20098 5.32644e-20 -8.6329e-21 -0.000290874 7.20649e-21 4.44635e-20 1.18321e-34 0.001415 
1112 1 0.0563793 -0.0257718 0.0160552 0 0 0 -2.76505e-20 -1.4186e-20 -0.20098 -1.33823e-19 -6.86573e-20 -0.000290874 3.84443e-21 -7.49335e-21 3.08567e-37 0.001415 
2603 1 -0.028804 -0.0238547 0.0162329 0 0 0 -2.60107e-20 1.13249e-21 -0.20098 -1.52279e-19 6.63013e-21 -0.000290874 -1.78077e-22 -4.09002e-21 5.05822e-38 0.001415 
7959 1 -0.0480224 -0.0227988 0.0152992 0 0 0 -2.10479e-19 1.31282e-19 -0.20098 -4.79253e-19 2.98923e-19 -0.000290874 -7.90664e-20 -1.26765e-19 1.98567e-34 0.001415 
9789 1 -0.0179785 -0.0208985 0.0149578 0 0 0 -9.61315e-20 -1.19537e-19 -0.20098 -3.27311e-19 -4.07001e-19 -0.000290874 2.15953e-19 -1.7367e-19 2.95401e-34 0.001415 
4471 1 -0.0206599 -0.0174716 0.0152143 0 0 0 4.50395e-19 -1.53958e-18 -0.20098 1.33298e-19 -4.55652e-19 -0.000290874 5.62221e-18 1.64475e-18 -1.17885e-33 0.001415 