ITEM: TIMESTEP
90000
ITEM: NUMBER OF ATOMS
10248
ITEM: BOX BOUNDS ff ff ff
-0.2 0.2
-0.2 0.2
-0.01 0.5
ITEM: ATOMS id type x y z ix iy iz vx vy vz fx fy fz omegax omegay omegaz radius 
5124 1 -0.00943529 -0.0647942 0.00262981 0 0 0 -1.04561e-17 -3.68052e-18 -0.217647 9.44965e-24 3.32625e-24 -0.000290853 2.41021e-16 -6.84724e-16 1.3382e-32 0.001415 
168 1 0.0236553 -0.0380352 0.00156531 0 0 0 8.8845e-18 1.18586e-16 -0.217647 2.07288e-19 2.76678e-18 -0.000290853 9.51313e-16 -7.12725e-17 -6.72256e-31 0.001415 
9891 1 -0.0536741 -0.00562861 0.00251428 0 0 0 6.9171e-18 -8.63935e-18 -0.217647 -6.25129e-24 7.80776e-24 -0.000290853 6.56011e-16 5.25235e-16 -2.86254e-31 0.001415 
8778 1 0.0127785 0.033873 0.00303859 0 0 0 -4.1681e-18 7.01476e-18 -0.217647 3.76689e-24 -6.33954e-24 -0.000290853 -4.39567e-16 -2.61186e-16 3.60357e-31 0.001415 
167 1 0.0236183 -0.0385289 0.00435166 0 0 0 -7.96761e-18 -1.06348e-16 -0.217647 -1.88888e-19 -2.52119e-18 -0.000290853 9.92037e-16 -7.43236e-17 4.35731e-30 0.001415 
5439 1 0.0255064 -0.015295 0.00490716 0 0 0 6.69757e-19 -1.27264e-18 -0.217647 -6.05288e-25 1.15014e-24 -0.000290853 -5.23921e-18 -2.75726e-18 2.22104e-33 0.001415 
4096 1 0.0493328 0.0413049 0.00445917 0 0 0 8.33088e-18 -2.83268e-18 -0.217647 1.31175e-19 -4.46025e-20 -0.000290853 -1.7202e-16 -5.0591e-16 8.1203e-31 0.001415 
5123 1 -0.00890863 -0.0646088 0.00540419 0 0 0 9.51973e-18 3.35091e-18 -0.217647 -8.60339e-24 -3.02837e-24 -0.000290853 2.39571e-16 -6.80606e-16 1.61863e-32 0.001415 
8779 1 0.0136066 -0.0379801 0.00602795 0 0 0 1.14882e-19 5.24087e-20 -0.217647 -1.03824e-25 -4.7364e-26 -0.000290853 -4.07827e-19 8.93976e-19 -5.00775e-34 0.001415 
6552 1 -0.00600865 -0.0297033 0.00664471 0 0 0 7.94166e-19 -1.28716e-19 -0.217647 -7.17723e-25 1.16326e-25 -0.000290853 -4.68489e-19 -2.89055e-18 -2.04101e-34 0.001415 
9890 1 -0.0540531 -0.00515523 0.00527855 0 0 0 -6.00507e-18 7.50024e-18 -0.217647 5.42705e-24 -6.77829e-24 -0.000290853 6.50003e-16 5.20426e-16 -2.86575e-31 0.001415 
4516 1 0.00201022 -0.00437069 0.00606464 0 0 0 -1.07232e-18 1.28014e-18 -0.217647 9.69104e-25 -1.15691e-24 -0.000290853 4.69466e-18 3.93254e-18 -1.24818e-32 0.001415 
5818 1 0.0744051 0.00953964 0.00557408 0 0 0 2.36865e-19 -2.27667e-19 -0.217647 -2.14066e-25 2.05753e-25 -0.000290853 -2.53191e-19 -2.6342e-19 -1.71788e-34 0.001415 
6447 1 -0.0515136 0.0117203 0.00588702 0 0 0 -1.10176e-18 1.3422e-18 -0.217647 9.95707e-25 -1.213e-24 -0.000290853 4.42252e-18 3.63027e-18 -1.38196e-32 0.001415 
4347 1 0.0446345 0.0124385 0.0066438 0 0 0 -7.28293e-19 -2.55981e-19 -0.217647 6.5819e-25 2.31341e-25 -0.000290853 -2.68511e-19 7.63943e-19 -3.25095e-35 0.001415 
9996 1 -0.0293411 0.0177597 0.00659845 0 0 0 -1.75259e-18 -1.67424e-18 -0.217647 1.58389e-24 1.51309e-24 -0.000290853 -7.58341e-18 7.93828e-18 1.07768e-32 0.001415 
4221 1 0.00751144 0.0235905 0.00595688 0 0 0 3.08442e-20 -2.27958e-19 -0.217647 -2.78752e-26 2.06016e-25 -0.000290853 4.14643e-19 5.61037e-20 1.08552e-34 0.001415 
3550 1 0.0375782 0.0284832 0.00671195 0 0 0 -1.07714e-18 6.30138e-18 -0.217647 9.7346e-25 -5.69483e-24 -0.000290853 3.71274e-17 6.34647e-18 -1.16602e-32 0.001415 
2814 1 0.0624335 0.0274639 0.00601481 0 0 0 1.42417e-19 7.22613e-19 -0.217647 -1.28709e-25 -6.53057e-25 -0.000290853 1.17362e-18 -2.31305e-19 1.95773e-33 0.001415 
8777 1 0.0130109 0.0334818 0.00583178 0 0 0 3.96831e-18 -6.67853e-18 -0.217647 -3.58634e-24 6.03568e-24 -0.000290853 -4.38793e-16 -2.60727e-16 3.60236e-31 0.001415 
4641 1 -0.00200478 0.0474767 0.00513636 0 0 0 -2.10645e-18 1.13423e-18 -0.217647 1.90369e-24 -1.02506e-24 -0.000290853 5.34876e-18 9.93351e-18 -2.46541e-33 0.001415 
5122 1 -0.00838197 -0.0644234 0.00817857 0 0 0 5.6274e-19 1.98083e-19 -0.217647 -8.34655e-21 -2.93796e-21 -0.000290853 6.70569e-17 -1.90504e-16 -1.36344e-30 0.001415 
8780 1 0.0123897 -0.0385353 0.0085219 0 0 0 1.82671e-17 8.33334e-18 -0.217647 2.9269e-19 1.33523e-19 -0.000290853 -1.53635e-15 3.36776e-15 2.24154e-30 0.001415 
166 1 0.0235813 -0.0390227 0.00713801 0 0 0 -8.60663e-19 -1.14877e-17 -0.217647 -1.83999e-20 -2.45593e-19 -0.000290853 4.19883e-17 -3.14577e-18 5.02947e-30 0.001415 
1407 1 0.0135434 -0.0200891 0.00733605 0 0 0 -6.80105e-19 -1.98966e-19 -0.217647 6.1464e-25 1.79814e-25 -0.000290853 -4.80072e-19 1.64098e-18 -6.54886e-34 0.001415 
8589 1 -0.0402517 -0.0187189 0.00744301 0 0 0 5.78197e-20 -7.63587e-19 -0.217647 -5.22542e-26 6.90087e-25 -0.000290853 3.63283e-18 2.75082e-19 -1.53632e-32 0.001415 
5438 1 0.0249608 -0.0142584 0.00748334 0 0 0 6.57845e-18 -1.25e-17 -0.217647 2.53523e-19 -4.81732e-19 -0.000290853 -1.23637e-15 -6.50669e-16 7.25706e-31 0.001415 
2100 1 -0.012979 -0.0106864 0.00755066 0 0 0 1.01981e-17 1.85034e-18 -0.217647 3.04083e-19 5.51725e-20 -0.000290853 2.19376e-17 -1.20909e-16 2.04324e-31 0.001415 
9889 1 -0.0544321 -0.00468185 0.00804281 0 0 0 -9.1203e-19 1.13911e-18 -0.217647 8.24241e-25 -1.02946e-24 -0.000290853 -6.0073e-18 -4.80975e-18 -3.2021e-34 0.001415 
4517 1 0.00302288 -0.0055796 0.00841452 0 0 0 1.07232e-18 -1.28014e-18 -0.217647 -9.69104e-25 1.15691e-24 -0.000290853 4.69466e-18 3.93254e-18 -1.24818e-32 0.001415 
7477 1 0.00556963 0.00632744 0.00828342 0 0 0 0 0 -0.217647 0 0 -0.000290853 0 0 0 0.001415 
6446 1 -0.0505093 0.0104969 0.00823298 0 0 0 -1.4867e-18 1.81115e-18 -0.217647 -4.1952e-20 5.11073e-20 -0.000290853 1.94052e-17 1.59289e-17 3.59672e-31 0.001415 
5819 1 0.0733204 0.0105822 0.00797103 0 0 0 -2.36865e-19 2.27667e-19 -0.217647 2.14066e-25 -2.05753e-25 -0.000290853 -2.53191e-19 -2.6342e-19 -1.71788e-34 0.001415 
4368 1 0.0417993 0.0124877 0.00851183 0 0 0 0 0 -0.217647 0 0 -0.000290853 0 0 0 0.001415 
1281 1 -0.00910888 0.0220965 0.00701304 0 0 0 -7.2005e-19 -2.66728e-19 -0.217647 6.50741e-25 2.41054e-25 -0.000290853 -8.98007e-19 2.42423e-18 -9.39145e-34 0.001415 
4220 1 0.00732219 0.0249892 0.0084098 0 0 0 1.01687e-18 -7.51533e-18 -0.217647 1.73853e-20 -1.28488e-19 -0.000290853 -7.07046e-17 -9.56678e-18 3.61569e-31 0.001415 
2813 1 0.0621842 0.0261988 0.00853399 0 0 0 8.62509e-19 4.3763e-18 -0.217647 1.70129e-20 8.63221e-20 -0.000290853 -1.02292e-16 2.01604e-17 -6.99587e-32 0.001415 
8776 1 0.0132433 0.0330907 0.00862497 0 0 0 -4.10748e-19 6.91274e-19 -0.217647 -1.03591e-20 1.74339e-20 -0.000290853 -2.7849e-17 -1.65476e-17 2.8108e-31 0.001415 
3969 1 -0.0266131 0.0377733 0.00803028 0 0 0 -1.03149e-17 3.22699e-17 -0.217647 -1.62627e-19 5.08774e-19 -0.000290853 -2.88297e-15 -9.21527e-16 2.23495e-30 0.001415 
7875 1 -0.0151895 0.0366812 0.00843121 0 0 0 2.75798e-18 3.26226e-18 -0.217647 4.35571e-20 5.15212e-20 -0.000290853 2.23476e-16 -1.88932e-16 -1.93736e-31 0.001415 
484 1 0.0153265 0.0412785 0.00710246 0 0 0 2.85383e-18 -2.41891e-18 -0.217647 -2.57913e-24 2.18607e-24 -0.000290853 -1.26415e-17 -1.49145e-17 1.11464e-32 0.001415 
4097 1 0.0483957 0.0416236 0.00711045 0 0 0 -6.87131e-18 2.3364e-18 -0.217647 -1.31177e-19 4.46029e-20 -0.000290853 -1.73541e-16 -5.10382e-16 8.10568e-31 0.001415 
4640 1 -0.000842548 0.0468509 0.00763966 0 0 0 -2.7997e-17 1.50751e-17 -0.217647 -1.59785e-18 8.6037e-19 -0.000290853 1.46678e-16 2.72406e-16 1.64257e-31 0.001415 
7350 1 0.0388042 0.0484249 0.00734352 0 0 0 -4.44036e-21 -7.50905e-20 -0.217647 4.01294e-27 6.78625e-26 -0.000290853 2.59561e-19 -1.53487e-20 3.67266e-36 0.001415 
6406 1 -0.013834 -0.0547628 0.0098303 0 0 0 1.03239e-17 -3.00982e-18 -0.217647 1.63312e-19 -4.76117e-20 -0.000290853 -1.51233e-16 -5.18741e-16 -7.86128e-31 0.001415 
4747 1 -0.048396 -0.0516837 0.0106191 0 0 0 -3.07261e-17 4.49251e-18 -0.217647 -4.88849e-19 7.14753e-20 -0.000290853 -1.78373e-16 -1.21997e-15 -3.73183e-31 0.001415 
8904 1 0.00698378 -0.051284 0.0101385 0 0 0 0 0 -0.217647 0 0 -0.000290853 0 0 0 0.001415 
9219 1 -0.0350531 -0.0474779 0.00890218 0 0 0 0 0 -0.217647 0 0 -0.000290853 0 0 0 0.001415 
8295 1 0.0424827 -0.0477148 0.0091699 0 0 0 0 0 -0.217647 0 0 -0.000290853 0 0 0 0.001415 
165 1 0.0235443 -0.0395164 0.00992436 0 0 0 1.85676e-19 2.47832e-18 -0.217647 8.15714e-21 1.08878e-19 -0.000290853 3.14979e-17 -2.35983e-18 1.14755e-29 0.001415 
6551 1 -0.00658842 -0.0296093 0.00941309 0 0 0 2.3362e-18 -3.78643e-19 -0.217647 4.94996e-20 -8.02272e-21 -0.000290853 -2.71186e-17 -1.6732e-16 4.45375e-33 0.001415 
9787 1 -0.0202299 -0.023698 0.0102282 0 0 0 -4.36464e-18 -5.42729e-18 -0.217647 -7.06477e-20 -8.78482e-20 -0.000290853 -2.3765e-16 1.91119e-16 -1.83223e-30 0.001415 
1406 1 0.0148736 -0.0197 0.00980346 0 0 0 6.80105e-19 1.98966e-19 -0.217647 -6.1464e-25 -1.79814e-25 -0.000290853 -4.80072e-19 1.64098e-18 -6.54886e-34 0.001415 
8588 1 -0.0403296 -0.0176897 0.0100781 0 0 0 3.16592e-18 -4.18103e-17 -0.217647 6.741e-20 -8.9024e-19 -0.000290853 4.2624e-15 3.22754e-16 2.91106e-29 0.001415 
8820 1 0.00980992 -0.0172644 0.0104059 0 0 0 0 0 -0.217647 0 0 -0.000290853 0 0 0 0.001415 
3529 1 0.0670132 -0.0166749 0.0107059 0 0 0 0 0 -0.217647 0 0 -0.000290853 0 0 0 0.001415 
4473 1 -0.0215554 -0.0144106 0.0101825 0 0 0 0 0 -0.217647 0 0 -0.000290853 0 0 0 0.001415 
5437 1 0.0244153 -0.0132218 0.0100595 0 0 0 1.20396e-18 -2.28769e-18 -0.217647 -1.12093e-19 2.12993e-19 -0.000290853 3.82829e-16 2.01473e-16 2.68732e-30 0.001415 
2099 1 -0.0146787 -0.0109948 0.00979223 0 0 0 -5.86757e-18 -1.06461e-18 -0.217647 -2.30865e-19 -4.18879e-20 -0.000290853 3.83515e-17 -2.11374e-16 5.96032e-32 0.001415 
3528 1 0.0516347 -0.000942708 0.0094945 0 0 0 -1.15331e-17 -5.24527e-18 -0.217647 -1.81992e-19 -8.27697e-20 -0.000290853 -3.02984e-16 6.66192e-16 -7.1982e-31 0.001415 
2457 1 0.0227749 0.00368251 0.00981749 0 0 0 0 0 -0.217647 0 0 -0.000290853 0 0 0 0.001415 
6445 1 -0.0495051 0.00927345 0.0105789 0 0 0 -9.63584e-20 1.17387e-19 -0.217647 -4.77957e-21 5.82264e-21 -0.000290853 -1.17231e-16 -9.62304e-17 2.22197e-30 0.001415 
4431 1 -0.0620527 0.012605 0.0105735 0 0 0 -2.46956e-17 5.27553e-18 -0.217647 -5.71308e-19 1.22044e-19 -0.000290853 -8.1124e-16 -3.79754e-15 -3.64509e-29 0.001415 
4346 1 0.0459771 0.0129104 0.00908997 0 0 0 -6.47944e-18 -2.27739e-18 -0.217647 -1.13964e-19 -4.00559e-20 -0.000290853 -1.41313e-16 4.02051e-16 -6.80823e-31 0.001415 
5820 1 0.0722357 0.0116248 0.010368 0 0 0 5.80171e-18 -5.57641e-18 -0.217647 9.16981e-20 -8.81372e-20 -0.000290853 -3.37207e-16 -3.50831e-16 -2.85432e-30 0.001415 
9995 1 -0.0283179 0.0187371 0.0090493 0 0 0 1.75259e-18 1.67424e-18 -0.217647 -1.58389e-24 -1.51309e-24 -0.000290853 -7.58341e-18 7.93828e-18 1.07768e-32 0.001415 
1280 1 -0.00826091 0.0224106 0.00969468 0 0 0 7.2005e-19 2.66728e-19 -0.217647 -6.50741e-25 -2.41054e-25 -0.000290853 -8.98007e-19 2.42423e-18 -9.39145e-34 0.001415 
3551 1 0.0378271 0.027027 0.0091257 0 0 0 1.07714e-18 -6.30138e-18 -0.217647 -9.7346e-25 5.69483e-24 -0.000290853 3.71274e-17 6.34647e-18 -1.16602e-32 0.001415 
3968 1 -0.0261983 0.0364757 0.0105108 0 0 0 1.03149e-17 -3.22699e-17 -0.217647 1.62627e-19 -5.08774e-19 -0.000290853 -2.88297e-15 -9.21527e-16 2.23495e-30 0.001415 
9745 1 -0.0323504 0.0411674 0.00981712 0 0 0 0 0 -0.217647 0 0 -0.000290853 0 0 0 0.001415 
485 1 0.0142511 0.04219 0.00955635 0 0 0 -2.85383e-18 2.41891e-18 -0.217647 2.57913e-24 -2.18607e-24 -0.000290853 -1.26415e-17 -1.49145e-17 1.11464e-32 0.001415 
4098 1 0.0474587 0.0419422 0.00976174 0 0 0 9.29302e-19 -3.15983e-19 -0.217647 3.80443e-20 -1.29359e-20 -0.000290853 -2.05956e-17 -6.05715e-17 -1.64144e-31 0.001415 
4639 1 0.000319678 0.0462251 0.010143 0 0 0 1.96013e-17 -1.05544e-17 -0.217647 1.41177e-18 -7.60179e-19 -0.000290853 3.66162e-16 6.80021e-16 -9.00308e-31 0.001415 
7349 1 0.0388392 0.0490157 0.010111 0 0 0 -5.85206e-19 -9.89637e-18 -0.217647 -1.55737e-20 -2.63366e-19 -0.000290853 -3.32414e-16 1.96568e-17 -1.99625e-30 0.001415 
3318 1 0.0108764 -0.0748018 0.0122001 0 0 0 0 0 -0.217647 0 0 -0.000290853 0 0 0 0.001415 
5121 1 -0.0078553 -0.064238 0.0109529 0 0 0 -7.30539e-18 -2.57148e-18 -0.217647 -2.00864e-19 -7.07036e-20 -0.000290853 -2.69485e-16 7.6559e-16 4.22494e-29 0.001415 
6407 1 -0.0157638 -0.0542001 0.0118223 0 0 0 -1.03239e-17 3.00982e-18 -0.217647 -1.63312e-19 4.76117e-20 -0.000290853 -1.51233e-16 -5.18741e-16 -7.86128e-31 0.001415 
4748 1 -0.0463698 -0.05198 0.0125725 0 0 0 1.34241e-17 -1.96275e-18 -0.217647 3.10566e-20 -4.54083e-21 -0.000290853 -1.07823e-15 -7.37444e-15 2.43314e-29 0.001415 
8903 1 0.00719176 -0.0530399 0.0123481 0 0 0 -1.82514e-18 1.54086e-17 -0.217647 -5.38203e-20 4.54375e-19 -0.000290853 -3.62285e-15 -4.29123e-16 3.38383e-29 0.001415 
8421 1 -0.0125515 -0.050364 0.0120256 0 0 0 0 0 -0.217647 0 0 -0.000290853 0 0 0 0.001415 
5040 1 0.0412118 -0.051077 0.0116027 0 0 0 0 0 -0.217647 0 0 -0.000290853 0 0 0 0.001415 
9218 1 -0.0344149 -0.0491301 0.0111094 0 0 0 -5.23498e-18 1.35506e-17 -0.217647 -1.39252e-19 3.6045e-19 -0.000290853 -2.104e-15 -8.12834e-16 -2.70274e-29 0.001415 
8294 1 0.0417911 -0.0460756 0.0113707 0 0 0 0 0 -0.217647 0 0 -0.000290853 0 0 0 0.001415 
8781 1 0.0111727 -0.0390904 0.0110158 0 0 0 -1.8382e-17 -8.38575e-18 -0.217647 -2.9269e-19 -1.33523e-19 -0.000290853 -1.53595e-15 3.36687e-15 2.24204e-30 0.001415 
7141 1 -0.0440609 -0.0300013 0.0125632 0 0 0 0 0 -0.217647 0 0 -0.000290853 0 0 0 0.001415 
6550 1 -0.00716818 -0.0295154 0.0121815 0 0 0 -3.13037e-18 5.07359e-19 -0.217647 -4.94988e-20 8.0226e-21 -0.000290853 -2.66502e-17 -1.64429e-16 4.65785e-33 0.001415 
9788 1 -0.0191042 -0.0222982 0.0124151 0 0 0 -2.23192e-18 -2.77532e-18 -0.217647 -1.49974e-19 -1.86488e-19 -0.000290853 3.07248e-15 -2.4709e-15 5.70989e-29 0.001415 
1405 1 0.0162037 -0.0193109 0.0122709 0 0 0 -2.32849e-17 -6.81204e-18 -0.217647 -5.87222e-19 -1.71793e-19 -0.000290853 9.52944e-16 -3.25735e-15 -2.09109e-29 0.001415 
8819 1 0.00974619 -0.0192248 0.0124459 0 0 0 9.83683e-19 3.0255e-17 -0.217647 2.35664e-20 7.24827e-19 -0.000290853 -3.42516e-15 1.11362e-16 -2.84461e-29 0.001415 
4472 1 -0.0211077 -0.0159411 0.0125205 0 0 0 -1.13569e-17 3.88211e-17 -0.217647 -2.47599e-19 8.46365e-19 -0.000290853 -6.39987e-15 -1.87225e-15 -5.97958e-29 0.001415 
4389 1 -0.00210167 -0.0164576 0.0112125 0 0 0 3.59782e-18 -1.7539e-18 -0.217647 1.17545e-19 -5.73017e-20 -0.000290853 -1.81408e-16 -3.72127e-16 -9.04138e-31 0.001415 
2098 1 -0.0163785 -0.0113032 0.0120338 0 0 0 -4.33055e-18 -7.85731e-19 -0.217647 -7.3218e-20 -1.32846e-20 -0.000290853 1.6414e-17 -9.04654e-17 -1.44721e-31 0.001415 
4518 1 0.00403554 -0.00678852 0.0107644 0 0 0 -1.53208e-17 1.829e-17 -0.217647 -3.51671e-19 4.19824e-19 -0.000290853 -3.72214e-15 -3.1179e-15 -6.98533e-29 0.001415 
9888 1 -0.0548111 -0.00420847 0.0108071 0 0 0 4.01704e-18 -5.01722e-18 -0.217647 1.19451e-19 -1.49192e-19 -0.000290853 -3.16953e-16 -2.53768e-16 -1.08648e-29 0.001415 
3527 1 0.053278 -0.000195356 0.011674 0 0 0 1.15331e-17 5.24527e-18 -0.217647 1.81992e-19 8.27697e-20 -0.000290853 -3.02984e-16 6.66192e-16 -7.1982e-31 0.001415 
4852 1 -0.0576017 0.00160357 0.0124349 0 0 0 8.22548e-18 1.34963e-17 -0.217647 2.37943e-19 3.90415e-19 -0.000290853 -1.93519e-15 1.17942e-15 4.79478e-29 0.001415 
2456 1 0.0231999 0.00341526 0.0126026 0 0 0 -1.96464e-16 1.23551e-16 -0.217647 -2.24919e-18 1.41445e-18 -0.000290853 5.98571e-16 9.51816e-16 -1.77449e-29 0.001415 
1470 1 -0.0541433 0.00552442 0.0110546 0 0 0 1.80932e-17 1.74356e-17 -0.217647 4.22098e-19 4.06756e-19 -0.000290853 -3.49656e-15 3.62844e-15 7.73417e-29 0.001415 
7478 1 0.0063252 0.00556124 0.0109009 0 0 0 0 0 -0.217647 0 0 -0.000290853 0 0 0 0.001415 
5545 1 -0.0302182 0.00727945 0.011195 0 0 0 0 0 -0.217647 0 0 -0.000290853 0 0 0 0.001415 
4367 1 0.0426483 0.0117219 0.0111006 0 0 0 -8.75011e-18 7.89323e-18 -0.217647 -2.60828e-19 2.35286e-19 -0.000290853 -4.81328e-16 -5.3358e-16 9.47955e-30 0.001415 
4345 1 0.0473197 0.0133822 0.0115361 0 0 0 7.20773e-18 2.53337e-18 -0.217647 1.13963e-19 4.00557e-20 -0.000290853 -1.41044e-16 4.01287e-16 -6.80791e-31 0.001415 
9994 1 -0.0272948 0.0197145 0.0115002 0 0 0 -1.70291e-17 -1.62679e-17 -0.217647 -4.21951e-19 -4.03088e-19 -0.000290853 2.35999e-15 -2.47043e-15 4.27553e-29 0.001415 
1279 1 -0.00741294 0.0227247 0.0123763 0 0 0 -2.00017e-17 -7.40921e-18 -0.217647 -4.80885e-19 -1.78134e-19 -0.000290853 1.08612e-16 -2.93206e-16 -1.76205e-29 0.001415 
2812 1 0.0619348 0.0249338 0.0110532 0 0 0 2.01604e-18 1.02292e-17 -0.217647 6.97183e-20 3.53745e-19 -0.000290853 -4.85628e-16 9.57107e-17 -2.96106e-29 0.001415 
4219 1 0.00713294 0.0263879 0.0108627 0 0 0 1.42558e-18 -1.0536e-17 -0.217647 4.95928e-20 -3.66523e-19 -0.000290853 1.95941e-15 2.65121e-16 -6.99932e-30 0.001415 
3552 1 0.038076 0.0255707 0.0115395 0 0 0 -1.24522e-18 7.28465e-18 -0.217647 -4.12599e-20 2.41374e-19 -0.000290853 -1.83879e-15 -3.14319e-16 2.65251e-29 0.001415 
9955 1 0.0480973 0.0295036 0.0118348 0 0 0 0 0 -0.217647 0 0 -0.000290853 0 0 0 0.001415 
6216 1 -0.023401 0.0310553 0.0109321 0 0 0 -1.75533e-18 -8.1615e-18 -0.217647 -2.8458e-20 -1.32317e-19 -0.000290853 -2.67251e-16 5.74787e-17 -9.74076e-32 0.001415 
8775 1 0.0134757 0.0326995 0.0114182 0 0 0 -9.61216e-19 1.61769e-18 -0.217647 -4.10238e-20 6.90415e-20 -0.000290853 2.57812e-16 1.53189e-16 -5.19681e-30 0.001415 
7874 1 -0.0157052 0.0360712 0.0111461 0 0 0 -2.75798e-18 -3.26226e-18 -0.217647 -4.35571e-20 -5.15212e-20 -0.000290853 2.23476e-16 -1.88932e-16 -1.93736e-31 0.001415 
4099 1 0.0465216 0.0422608 0.012413 0 0 0 -2.38887e-18 8.12267e-19 -0.217647 -3.8043e-20 1.29355e-20 -0.000290853 -1.90749e-17 -5.60991e-17 -1.62682e-31 0.001415 
9746 1 -0.0326219 0.0429159 0.0120258 0 0 0 2.89616e-18 -1.86523e-17 -0.217647 8.12014e-20 -5.22966e-19 -0.000290853 3.99056e-15 6.19618e-16 -2.72504e-29 0.001415 
486 1 0.0131757 0.0431015 0.0120102 0 0 0 2.5344e-17 -2.14816e-17 -0.217647 5.75816e-19 -4.88061e-19 -0.000290853 4.3445e-15 5.12565e-15 -1.55281e-29 0.001415 
8316 1 0.0241447 0.055508 0.0125778 0 0 0 0 0 -0.217647 0 0 -0.000290853 0 0 0 0.001415 
6048 1 -0.0014895 0.0671831 0.0114254 0 0 0 -1.72736e-17 -1.03801e-18 -0.217647 -4.93844e-19 -2.96762e-20 -0.000290853 1.22334e-16 -2.03577e-15 -4.80937e-31 0.001415 
3317 1 0.00879117 -0.0741345 0.0139932 0 0 0 6.85149e-16 -2.19257e-16 -0.217647 1.11431e-17 -3.56596e-18 -0.000290853 -2.4753e-15 -7.73498e-15 -2.19214e-28 0.001415 
4537 1 0.0348065 -0.0668743 0.0139711 0 0 0 2.20617e-16 -4.29636e-16 -0.217647 3.26593e-18 -6.36018e-18 -0.000290853 5.68714e-15 2.92033e-15 -2.88424e-29 0.001415 
5120 1 -0.00732864 -0.0640527 0.0137273 0 0 0 -2.67925e-16 -9.43088e-17 -0.217647 -3.9024e-18 -1.37363e-18 -0.000290853 1.32883e-15 -3.77511e-15 4.889e-29 0.001415 
4749 1 -0.0443437 -0.0522762 0.0145259 0 0 0 -5.02557e-16 7.34796e-17 -0.217647 -7.9699e-18 1.16529e-18 -0.000290853 1.46349e-15 1.00094e-14 1.92694e-29 0.001415 
6408 1 -0.0176936 -0.0536375 0.0138144 0 0 0 7.3506e-16 -2.14299e-16 -0.217647 1.2005e-17 -3.49992e-18 -0.000290853 -1.02874e-15 -3.52864e-15 1.27421e-28 0.001415 
9217 1 -0.0337766 -0.0507822 0.0133167 0 0 0 -2.02059e-16 5.23023e-16 -0.217647 -2.13689e-18 5.53126e-18 -0.000290853 -4.88282e-16 -1.88637e-16 4.27156e-28 0.001415 
5039 1 0.0393096 -0.0515993 0.0136319 0 0 0 6.72475e-16 1.84648e-16 -0.217647 1.09581e-17 3.00888e-18 -0.000290853 1.08879e-15 -3.96531e-15 1.07868e-28 0.001415 
8420 1 -0.0130316 -0.0490822 0.0145025 0 0 0 2.22572e-16 -5.94313e-16 -0.217647 3.62522e-18 -9.68007e-18 -0.000290853 5.72805e-16 2.14517e-16 1.81189e-28 0.001415 
8293 1 0.0410995 -0.0444363 0.0135715 0 0 0 2.92327e-16 -6.92868e-16 -0.217647 4.79715e-18 -1.13701e-17 -0.000290853 -1.2857e-14 -5.42446e-15 2.19176e-28 0.001415 
8782 1 0.00995582 -0.0396456 0.0135098 0 0 0 5.01401e-16 2.28736e-16 -0.217647 8.17728e-18 3.73043e-18 -0.000290853 3.84231e-15 -8.42254e-15 -1.72357e-28 0.001415 
164 1 0.0235073 -0.0400101 0.0127107 0 0 0 1.89722e-17 2.53232e-16 -0.217647 3.32982e-19 4.44449e-18 -0.000290853 -3.58302e-15 2.6844e-16 1.56301e-29 0.001415 
1765 1 -0.00582286 -0.0341936 0.0142646 0 0 0 5.74006e-16 -1.79628e-16 -0.217647 9.4326e-18 -2.95182e-18 -0.000290853 -4.10744e-15 -1.31254e-14 8.97671e-30 0.001415 
2898 1 -0.0015393 -0.0260351 0.0145368 0 0 0 4.1054e-16 -8.10445e-17 -0.217647 6.07277e-18 -1.19882e-18 -0.000290853 4.36021e-16 2.20871e-15 -3.87695e-29 0.001415 
1113 1 0.057839 -0.0250229 0.0133934 0 0 0 6.25434e-16 3.20876e-16 -0.217647 1.00871e-17 5.17515e-18 -0.000290853 2.87575e-15 -5.60526e-15 -2.0229e-28 0.001415 
2604 1 -0.0264828 -0.0239558 0.0142613 0 0 0 5.89269e-16 -2.56565e-17 -0.217647 9.66288e-18 -4.20717e-19 -0.000290853 -6.82083e-16 -1.56659e-14 3.81571e-29 0.001415 
8818 1 0.00968245 -0.0211851 0.014486 0 0 0 2.06029e-17 6.33681e-16 -0.217647 3.31983e-19 1.02108e-17 -0.000290853 1.41783e-15 -4.6098e-17 -1.88874e-29 0.001415 
3530 1 0.0663652 -0.0174708 0.0133432 0 0 0 3.89545e-16 4.78438e-16 -0.217647 5.799e-18 7.12232e-18 -0.000290853 -1.5888e-15 1.2936e-15 -3.40254e-28 0.001415 
8587 1 -0.0404076 -0.0166605 0.0127131 0 0 0 3.32677e-17 -4.39345e-16 -0.217647 5.07167e-19 -6.69783e-18 -0.000290853 2.06539e-15 1.56394e-16 -1.05058e-29 0.001415 
4388 1 -0.00265555 -0.0161876 0.0139746 0 0 0 2.74427e-16 -1.3378e-16 -0.217647 3.9716e-18 -1.93611e-18 -0.000290853 1.75025e-15 3.59035e-15 1.68647e-30 0.001415 
2097 1 -0.0180782 -0.0116116 0.0142754 0 0 0 6.81527e-16 1.23656e-16 -0.217647 1.10588e-17 2.00651e-18 -0.000290853 2.07727e-15 -1.14488e-14 -1.65633e-28 0.001415 
5436 1 0.0238697 -0.0121851 0.0126357 0 0 0 -6.76028e-19 1.28455e-18 -0.217647 7.3072e-20 -1.38848e-19 -0.000290853 2.41629e-15 1.27163e-15 -2.31353e-29 0.001415 
4519 1 0.0050482 -0.00799743 0.0131143 0 0 0 -2.90798e-16 3.47154e-16 -0.217647 -4.21114e-18 5.02725e-18 -0.000290853 7.6574e-16 6.41432e-16 1.51899e-28 0.001415 
9887 1 -0.0551901 -0.00373509 0.0135713 0 0 0 1.92162e-16 -2.40008e-16 -0.217647 2.74705e-18 -3.43102e-18 -0.000290853 3.18868e-15 2.55302e-15 -2.10137e-29 0.001415 
4853 1 -0.0586257 -7.65915e-05 0.014469 0 0 0 3.51222e-16 5.76281e-16 -0.217647 5.6421e-18 9.2575e-18 -0.000290853 -1.09214e-15 6.6562e-16 5.00272e-29 0.001415 
9744 1 -0.0476714 0.00124731 0.0133556 0 0 0 4.34621e-18 4.95069e-18 -0.217647 1.38262e-19 1.57492e-19 -0.000290853 -9.5344e-16 8.37024e-16 -1.32868e-30 0.001415 
3403 1 0.0399954 0.00144601 0.0134905 0 0 0 -5.92322e-16 2.803e-17 -0.217647 -1.26272e-17 5.97548e-19 -0.000290853 2.44826e-16 5.17361e-15 -1.99281e-29 0.001415 
3526 1 0.0549212 0.000551996 0.0138534 0 0 0 -6.87899e-16 -3.12856e-16 -0.217647 -1.11929e-17 -5.09054e-18 -0.000290853 -5.6274e-15 1.23734e-14 -6.72479e-28 0.001415 
3843 1 -0.0432547 0.00201405 0.014076 0 0 0 5.50864e-16 3.75338e-16 -0.217647 8.91146e-18 6.07194e-18 -0.000290853 2.72188e-15 -3.99475e-15 6.08473e-28 0.001415 
6238 1 0.0476834 0.00358837 0.0136115 0 0 0 7.00802e-16 -4.50907e-16 -0.217647 1.14539e-17 -7.36961e-18 -0.000290853 -2.52584e-15 -3.92567e-15 -9.3445e-29 0.001415 
1469 1 -0.0554428 0.00427207 0.0132344 0 0 0 4.0075e-16 3.86184e-16 -0.217647 4.95736e-18 4.77718e-18 -0.000290853 4.11334e-15 -4.26848e-15 -2.28884e-28 0.001415 
7479 1 0.00708078 0.00479504 0.0135183 0 0 0 -3.62862e-16 3.67964e-16 -0.217647 -5.30668e-18 5.3813e-18 -0.000290853 -2.12906e-15 -2.09953e-15 -3.63252e-29 0.001415 
6444 1 -0.0485008 0.00805 0.0129249 0 0 0 -9.981e-18 1.21592e-17 -0.217647 -3.03709e-19 3.69988e-19 -0.000290853 -3.29208e-15 -2.70234e-15 -8.8497e-29 0.001415 
5546 1 -0.0286421 0.00814112 0.0133818 0 0 0 -6.6654e-16 -3.64407e-16 -0.217647 -9.27115e-18 -5.06867e-18 -0.000290853 -6.37881e-15 1.16675e-14 -1.46354e-28 0.001415 
7897 1 0.0202104 0.0106666 0.0127777 0 0 0 4.81041e-18 2.29293e-17 -0.217647 1.23917e-19 5.90664e-19 -0.000290853 -3.01366e-15 6.32244e-16 1.27022e-30 0.001415 
4366 1 0.0434972 0.010956 0.0136894 0 0 0 -4.07746e-16 3.67817e-16 -0.217647 -5.89347e-18 5.31633e-18 -0.000290853 -1.12719e-15 -1.24955e-15 6.71692e-29 0.001415 
4430 1 -0.0607358 0.0123237 0.0130626 0 0 0 -4.65528e-16 9.94473e-17 -0.217647 -5.54153e-18 1.18379e-18 -0.000290853 4.50975e-16 2.11109e-15 2.34045e-29 0.001415 
5821 1 0.071151 0.0126674 0.0127649 0 0 0 -5.80171e-18 5.57641e-18 -0.217647 -9.16981e-20 8.81372e-20 -0.000290853 -3.37207e-16 -3.50831e-16 -2.85432e-30 0.001415 
4344 1 0.0486622 0.0138541 0.0139823 0 0 0 -6.22764e-16 -2.18889e-16 -0.217647 -1.0133e-17 -3.56153e-18 -0.000290853 -5.24981e-16 1.49363e-15 2.19065e-28 0.001415 
5629 1 -0.00809486 0.0186934 0.0138556 0 0 0 6.10113e-16 1.06731e-17 -0.217647 9.83562e-18 1.72061e-19 -0.000290853 3.19699e-16 -1.82752e-14 3.05623e-29 0.001415 
9993 1 -0.0262716 0.020692 0.013951 0 0 0 -3.87077e-16 -3.69773e-16 -0.217647 -6.15513e-18 -5.87997e-18 -0.000290853 -4.68872e-15 4.90813e-15 1.84967e-28 0.001415 
3553 1 0.038325 0.0241144 0.0139532 0 0 0 -9.12329e-17 5.33721e-16 -0.217647 -1.45791e-18 8.52894e-18 -0.000290853 4.75659e-15 8.1308e-16 5.85583e-29 0.001415 
2811 1 0.0616855 0.0236687 0.0135724 0 0 0 1.19051e-16 6.04055e-16 -0.217647 1.90684e-18 9.67513e-18 -0.000290853 -3.19802e-15 6.30286e-16 -6.47451e-29 0.001415 
4218 1 0.00694369 0.0277865 0.0133156 0 0 0 7.72247e-17 -5.7074e-16 -0.217647 1.2311e-18 -9.09862e-18 -0.000290853 -5.38276e-15 -7.28321e-16 5.98651e-29 0.001415 
9956 1 0.047731 0.0274693 0.0137678 0 0 0 1.20768e-16 6.70719e-16 -0.217647 1.95913e-18 1.08806e-17 -0.000290853 4.50517e-15 -8.11189e-16 -1.44459e-29 0.001415 
6007 1 0.0347873 0.0296881 0.0135377 0 0 0 1.81185e-16 2.03014e-16 -0.217647 2.65714e-18 2.97726e-18 -0.000290853 -2.73465e-15 2.44062e-15 3.06246e-29 0.001415 
8774 1 0.0137081 0.0323084 0.0142113 0 0 0 -1.19978e-16 2.01918e-16 -0.217647 -1.73369e-18 2.91774e-18 -0.000290853 -2.97956e-15 -1.77043e-15 2.17928e-29 0.001415 
6215 1 -0.0229502 0.0331509 0.0127799 0 0 0 -8.27007e-19 -3.84522e-18 -0.217647 -5.02368e-20 -2.33579e-19 -0.000290853 4.03564e-15 -8.67961e-16 -1.45422e-29 0.001415 
3967 1 -0.0257836 0.0351781 0.0129914 0 0 0 -1.67409e-16 5.23732e-16 -0.217647 -1.94198e-18 6.07542e-18 -0.000290853 1.21885e-15 3.89601e-16 -2.62508e-29 0.001415 
7873 1 -0.0162209 0.0354611 0.013861 0 0 0 2.63912e-16 3.12166e-16 -0.217647 3.85329e-18 4.55783e-18 -0.000290853 -5.70892e-15 4.82644e-15 8.1182e-30 0.001415 
6847 1 -0.0500743 0.0395872 0.0140177 0 0 0 -6.64e-16 2.86398e-16 -0.217647 -1.07674e-17 4.64423e-18 -0.000290853 6.8108e-15 1.57905e-14 -5.62272e-28 0.001415 
487 1 0.0121003 0.044013 0.0144641 0 0 0 3.97873e-16 -3.37237e-16 -0.217647 6.35297e-18 -5.38477e-18 -0.000290853 -1.71154e-15 -2.01928e-15 -3.67132e-29 0.001415 
9747 1 -0.0328934 0.0446643 0.0142344 0 0 0 1.05112e-16 -6.76962e-16 -0.217647 1.69113e-18 -1.08915e-17 -0.000290853 -5.29938e-15 -8.22838e-16 -7.87875e-29 0.001415 
4638 1 0.00148191 0.0455993 0.0126462 0 0 0 4.05925e-18 -2.18573e-18 -0.217647 -2.85038e-20 1.53481e-20 -0.000290853 -5.03403e-16 -9.349e-16 -1.29278e-30 0.001415 
7348 1 0.0388741 0.0496065 0.0128784 0 0 0 -1.79964e-17 -3.04335e-16 -0.217647 -2.56232e-19 -4.33312e-18 -0.000290853 4.36066e-15 -2.57861e-16 -6.65653e-30 0.001415 
8315 1 0.0261215 0.0546907 0.0144307 0 0 0 -6.66221e-16 2.75434e-16 -0.217647 -1.0961e-17 4.5316e-18 -0.000290853 1.46474e-15 3.54292e-15 6.66492e-28 0.001415 
4831 1 0.0293284 0.0560787 0.0130472 0 0 0 4.97298e-16 -2.76444e-16 -0.217647 6.68978e-18 -3.71879e-18 -0.000290853 -5.00835e-15 -9.00958e-15 -3.1544e-28 0.001415 
6909 1 0.00964204 0.0590336 0.0130813 0 0 0 6.78136e-17 -4.08595e-17 -0.217647 1.33053e-18 -8.01677e-19 -0.000290853 5.86098e-15 9.72733e-15 -2.43223e-28 0.001415 
6047 1 -2.16486e-05 0.0672713 0.0138434 0 0 0 -6.67507e-16 -4.01119e-17 -0.217647 -1.05914e-17 -6.36458e-19 -0.000290853 -3.97379e-17 6.61282e-16 -2.58045e-30 0.001415 
7455 1 0.00864732 0.0657086 0.0139897 0 0 0 -2.80697e-17 6.65644e-16 -0.217647 -4.65489e-19 1.10386e-17 -0.000290853 9.63805e-16 4.06429e-17 -1.23684e-29 0.001415 
8757 1 0.00829498 0.0765507 0.0134362 0 0 0 0 0 -0.217647 0 0 -0.000290853 0 0 0 0.001415 
3316 1 0.00670592 -0.0734672 0.0157863 0 0 0 -6.85149e-16 2.19257e-16 -0.217647 -1.11431e-17 3.56596e-18 -0.000290853 -2.4753e-15 -7.73498e-15 -2.19214e-28 0.001415 
2499 1 0.0564696 -0.0568217 0.0159333 0 0 0 5.67654e-18 -1.29875e-17 -0.217647 9.16402e-20 -2.09665e-19 -0.000290853 -3.34428e-16 -1.46171e-16 -1.31091e-30 0.001415 
8902 1 0.00739974 -0.0547957 0.0145578 0 0 0 -8.00872e-17 6.76133e-16 -0.217647 -1.28848e-18 1.08779e-17 -0.000290853 3.54061e-15 4.19381e-16 7.31572e-30 0.001415 
4054 1 -0.0359786 -0.0521436 0.0162198 0 0 0 0 0 -0.217647 0 0 -0.000290853 0 0 0 0.001415 
9216 1 -0.0331383 -0.0524344 0.0155239 0 0 0 1.81108e-16 -4.68794e-16 -0.217647 1.16475e-18 -3.01492e-18 -0.000290853 3.96057e-15 1.53008e-15 2.33293e-28 0.001415 
6409 1 -0.0196234 -0.0530749 0.0158064 0 0 0 -7.3506e-16 2.14299e-16 -0.217647 -1.2005e-17 3.49992e-18 -0.000290853 -1.02874e-15 -3.52864e-15 1.27421e-28 0.001415 
5038 1 0.0374074 -0.0521216 0.0156611 0 0 0 -6.20068e-16 -1.70258e-16 -0.217647 -9.85277e-18 -2.70537e-18 -0.000290853 1.28314e-15 -4.67312e-15 1.82044e-28 0.001415 
8292 1 0.0404079 -0.0427971 0.0157723 0 0 0 -2.83242e-16 6.71336e-16 -0.217647 -4.55124e-18 1.07873e-17 -0.000290853 -1.24232e-14 -5.24146e-15 2.70435e-28 0.001415 
163 1 0.0234703 -0.0405039 0.0154971 0 0 0 -1.88055e-17 -2.51007e-16 -0.217647 -3.41139e-19 -4.55337e-18 -0.000290853 -2.44928e-15 1.835e-16 1.75098e-29 0.001415 
8783 1 0.00873888 -0.0402008 0.0160037 0 0 0 -4.90281e-16 -2.23664e-16 -0.217647 -7.84587e-18 -3.57924e-18 -0.000290853 3.15255e-15 -6.91055e-15 -1.14611e-28 0.001415 
1766 1 -0.00794199 -0.0335305 0.0160192 0 0 0 -5.29843e-16 1.65808e-16 -0.217647 -8.50027e-18 2.66006e-18 -0.000290853 -3.64703e-15 -1.16542e-14 3.48849e-29 0.001415 
7142 1 -0.0430179 -0.0310366 0.0149817 0 0 0 -4.44324e-16 4.41035e-16 -0.217647 -7.22516e-18 7.17169e-18 -0.000290853 5.64177e-15 5.68384e-15 -1.75681e-28 0.001415 
6549 1 -0.00774795 -0.0294214 0.0149499 0 0 0 3.16372e-16 -5.12765e-17 -0.217647 4.63e-18 -7.50414e-19 -0.000290853 5.6621e-16 3.49348e-15 4.61204e-30 0.001415 
1112 1 0.0563793 -0.0257718 0.0156993 0 0 0 -6.25434e-16 -3.20876e-16 -0.217647 -1.00871e-17 -5.17515e-18 -0.000290853 2.87575e-15 -5.60526e-15 -2.0229e-28 0.001415 