ITEM: TIMESTEP
10000
ITEM: NUMBER OF ATOMS
10248
ITEM: BOX BOUNDS ff ff ff
-0.2 0.2
-0.2 0.2
-0.01 0.5
ITEM: ATOMS id type x y z ix iy iz vx vy vz fx fy fz omegax omegay omegaz radius 
5124 1 -0.00943529 -0.0647942 0.0029655 0 0 0 -1.04156e-18 -3.66627e-19 -0.201961 -4.44743e-19 -1.56548e-19 -0.000290873 -1.36639e-19 3.88184e-19 -1.52281e-32 0.001415 
168 1 0.0236553 -0.0380352 0.001901 0 0 0 1.0059e-19 1.34264e-18 -0.201961 4.72732e-20 6.30981e-19 -0.000290873 1.11871e-18 -8.3814e-20 -3.95312e-33 0.001415 
9891 1 -0.0536741 -0.00562861 0.00284997 0 0 0 6.76938e-19 -8.45485e-19 -0.201961 2.98787e-19 -3.7318e-19 -0.000290873 1.12134e-18 8.97798e-19 -5.83238e-33 0.001415 
8778 1 0.0127785 0.033873 0.00337428 0 0 0 -4.08662e-19 6.87762e-19 -0.201961 -1.82911e-19 3.07833e-19 -0.000290873 1.24836e-18 7.41764e-19 6.50866e-35 0.001415 
167 1 0.0236183 -0.0385289 0.00468735 0 0 0 -1.5763e-20 -2.10397e-19 -0.201961 -3.46715e-20 -4.6278e-19 -0.000290873 5.50044e-18 -4.12094e-19 -1.49668e-33 0.001415 
5439 1 0.0255064 -0.015295 0.00524285 0 0 0 6.69789e-19 -1.2727e-18 -0.201961 -5.84996e-25 1.11158e-24 -0.000290873 -5.23967e-18 -2.7575e-18 2.22123e-33 0.001415 
4096 1 0.0493328 0.0413049 0.00479486 0 0 0 9.59165e-19 -3.26137e-19 -0.201961 1.42041e-19 -4.8297e-20 -0.000290873 -1.87716e-19 -5.52072e-19 1.33736e-32 0.001415 
5123 1 -0.00890863 -0.0646088 0.00573988 0 0 0 1.05126e-19 3.70039e-20 -0.201961 4.44743e-19 1.56548e-19 -0.000290873 -1.58631e-18 4.50659e-18 -1.24235e-32 0.001415 
8779 1 0.0136066 -0.0379801 0.00636364 0 0 0 1.14888e-19 5.24112e-20 -0.201961 -1.00344e-25 -4.57761e-26 -0.000290873 -4.07862e-19 8.94054e-19 -5.00819e-34 0.001415 
6552 1 -0.00600865 -0.0297033 0.0069804 0 0 0 7.94204e-19 -1.28722e-19 -0.201961 -6.93661e-25 1.12426e-25 -0.000290873 -4.6853e-19 -2.8908e-18 -2.04118e-34 0.001415 
9890 1 -0.0540531 -0.00515523 0.00561424 0 0 0 2.35135e-19 -2.9368e-19 -0.201961 -2.98788e-19 3.73181e-19 -0.000290873 -4.88648e-18 -3.91237e-18 -6.15262e-33 0.001415 
4516 1 0.00201022 -0.00437069 0.00640032 0 0 0 -1.07237e-18 1.2802e-18 -0.201961 9.36614e-25 -1.11813e-24 -0.000290873 4.69506e-18 3.93288e-18 -1.24829e-32 0.001415 
5818 1 0.0744051 0.00953964 0.00590977 0 0 0 2.36877e-19 -2.27678e-19 -0.201961 -2.06889e-25 1.98855e-25 -0.000290873 -2.53213e-19 -2.63443e-19 -1.71803e-34 0.001415 
6447 1 -0.0515136 0.0117203 0.00622271 0 0 0 -1.10181e-18 1.34226e-18 -0.201961 9.62326e-25 -1.17234e-24 -0.000290873 4.42291e-18 3.63059e-18 -1.38208e-32 0.001415 
4347 1 0.0446345 0.0124385 0.00697948 0 0 0 -7.28328e-19 -2.55993e-19 -0.201961 6.36124e-25 2.23585e-25 -0.000290873 -2.68534e-19 7.6401e-19 -3.25123e-35 0.001415 
9996 1 -0.0293411 0.0177597 0.00693414 0 0 0 -1.75267e-18 -1.67432e-18 -0.201961 1.53079e-24 1.46236e-24 -0.000290873 -7.58407e-18 7.93897e-18 1.07778e-32 0.001415 
4221 1 0.00751144 0.0235905 0.00629257 0 0 0 3.08457e-20 -2.27969e-19 -0.201961 -2.69407e-26 1.99109e-25 -0.000290873 4.14679e-19 5.61086e-20 1.08562e-34 0.001415 
3550 1 0.0375782 0.0284832 0.00704763 0 0 0 -1.07719e-18 6.30168e-18 -0.201961 9.40825e-25 -5.50391e-24 -0.000290873 3.71307e-17 6.34702e-18 -1.16612e-32 0.001415 
2814 1 0.0624335 0.0274639 0.0063505 0 0 0 1.42424e-19 7.22648e-19 -0.201961 -1.24394e-25 -6.31163e-25 -0.000290873 1.17372e-18 -2.31325e-19 1.9579e-33 0.001415 
8777 1 0.0130109 0.0334818 0.00616747 0 0 0 2.08867e-19 -3.51515e-19 -0.201961 1.82911e-19 -3.07833e-19 -0.000290873 2.02159e-18 1.20121e-18 -5.58592e-35 0.001415 
4641 1 -0.00200478 0.0474767 0.00547205 0 0 0 -2.10655e-18 1.13429e-18 -0.201961 1.83987e-24 -9.9069e-25 -0.000290873 5.34922e-18 9.93437e-18 -2.46562e-33 0.001415 
5122 1 -0.00838197 -0.0644234 0.00851425 0 0 0 9.05378e-19 3.1869e-19 -0.201961 -4.82053e-21 -1.69681e-21 -0.000290873 -2.68796e-19 7.63632e-19 -1.4476e-32 0.001415 
8780 1 0.0123897 -0.0385353 0.00885758 0 0 0 2.00244e-18 9.13501e-19 -0.201961 3.12586e-19 1.426e-19 -0.000290873 6.84096e-18 -1.49957e-17 -4.5562e-33 0.001415 
166 1 0.0235813 -0.0390227 0.0074737 0 0 0 -2.86015e-20 -3.8176e-19 -0.201961 -1.26017e-20 -1.68202e-19 -0.000290873 5.64544e-18 -4.22957e-19 2.36096e-33 0.001415 
1407 1 0.0135434 -0.0200891 0.00767173 0 0 0 -6.80137e-19 -1.98975e-19 -0.201961 5.94034e-25 1.73786e-25 -0.000290873 -4.80113e-19 1.64112e-18 -6.54942e-34 0.001415 
8589 1 -0.0402517 -0.0187189 0.0077787 0 0 0 5.78225e-20 -7.63624e-19 -0.201961 -5.05024e-26 6.66952e-25 -0.000290873 3.63315e-18 2.75106e-19 -1.53645e-32 0.001415 
5438 1 0.0249608 -0.0142584 0.00781902 0 0 0 -6.69789e-19 1.2727e-18 -0.201961 5.84996e-25 -1.11158e-24 -0.000290873 -5.23967e-18 -2.7575e-18 2.22123e-33 0.001415 
2100 1 -0.012979 -0.0106864 0.00788634 0 0 0 4.87412e-19 8.84357e-20 -0.201961 7.21741e-20 1.30952e-20 -0.000290873 2.23706e-19 -1.23295e-18 2.73919e-34 0.001415 
9889 1 -0.0544321 -0.00468185 0.0083785 0 0 0 -9.12074e-19 1.13917e-18 -0.201961 7.96608e-25 -9.94951e-25 -0.000290873 -6.00782e-18 -4.81017e-18 -3.20238e-34 0.001415 
4517 1 0.00302288 -0.0055796 0.00875021 0 0 0 1.07237e-18 -1.2802e-18 -0.201961 -9.36614e-25 1.11813e-24 -0.000290873 4.69506e-18 3.93288e-18 -1.24829e-32 0.001415 
7477 1 0.00556963 0.00632744 0.00861911 0 0 0 0 0 -0.201961 0 0 -0.000290873 0 0 0 0.001415 
6446 1 -0.0505093 0.0104969 0.00856866 0 0 0 8.11405e-19 -9.88482e-19 -0.201961 -4.32491e-20 5.26875e-20 -0.000290873 1.09221e-18 8.96554e-19 1.51104e-32 0.001415 
5819 1 0.0733204 0.0105822 0.00830671 0 0 0 -2.36877e-19 2.27678e-19 -0.201961 2.06889e-25 -1.98855e-25 -0.000290873 -2.53213e-19 -2.63443e-19 -1.71803e-34 0.001415 
4368 1 0.0417993 0.0124877 0.00884752 0 0 0 0 0 -0.201961 0 0 -0.000290873 0 0 0 0.001415 
1281 1 -0.00910888 0.0220965 0.00734873 0 0 0 -7.20085e-19 -2.66741e-19 -0.201961 6.28924e-25 2.32972e-25 -0.000290873 -8.98085e-19 2.42444e-18 -9.39226e-34 0.001415 
4220 1 0.00732219 0.0249892 0.00874548 0 0 0 8.5951e-20 -6.35233e-19 -0.201961 1.73004e-20 -1.27861e-19 -0.000290873 -1.67136e-18 -2.26145e-19 1.09872e-33 0.001415 
2813 1 0.0621842 0.0261988 0.00886968 0 0 0 -3.20524e-20 -1.62631e-19 -0.201961 1.63824e-20 8.31231e-20 -0.000290873 4.49123e-19 -8.8516e-20 -4.83504e-33 0.001415 
8776 1 0.0132433 0.0330907 0.00896065 0 0 0 1.32831e-19 -2.2355e-19 -0.201961 -9.95023e-21 1.67459e-20 -0.000290873 2.04362e-19 1.2143e-19 1.2918e-33 0.001415 
3969 1 -0.0266131 0.0377733 0.00836596 0 0 0 -1.19479e-18 3.73785e-18 -0.201961 -1.76281e-19 5.51488e-19 -0.000290873 3.10192e-17 9.91515e-18 -5.49209e-33 0.001415 
7875 1 -0.0151895 0.0366812 0.00876689 0 0 0 3.17483e-19 3.75533e-19 -0.201961 4.69021e-20 5.54779e-20 -0.000290873 2.6277e-18 -2.22151e-18 -1.37163e-33 0.001415 
484 1 0.0153265 0.0412785 0.00743814 0 0 0 2.85397e-18 -2.41902e-18 -0.201961 -2.49267e-24 2.11278e-24 -0.000290873 -1.26426e-17 -1.49158e-17 1.11474e-32 0.001415 
4097 1 0.0483957 0.0416236 0.00744614 0 0 0 5.00469e-19 -1.7017e-19 -0.201961 -1.42042e-19 4.82974e-20 -0.000290873 -1.70855e-18 -5.02482e-18 1.19115e-32 0.001415 
4640 1 -0.000842548 0.0468509 0.00797534 0 0 0 2.10655e-18 -1.13429e-18 -0.201961 -1.83987e-24 9.9069e-25 -0.000290873 5.34922e-18 9.93437e-18 -2.46562e-33 0.001415 
7350 1 0.0388042 0.0484249 0.00767921 0 0 0 -4.44057e-21 -7.50941e-20 -0.201961 3.87841e-27 6.55874e-26 -0.000290873 2.59583e-19 -1.535e-20 3.67298e-36 0.001415 
6406 1 -0.013834 -0.0547628 0.010166 0 0 0 1.18786e-18 -3.46306e-19 -0.201961 1.75471e-19 -5.11567e-20 -0.000290873 -1.77805e-18 -6.09883e-18 -5.17506e-33 0.001415 
4747 1 -0.048396 -0.0516837 0.0109548 0 0 0 -3.52693e-18 5.15678e-19 -0.201961 -5.20912e-19 7.61633e-20 -0.000290873 2.70389e-18 1.8493e-17 1.44351e-32 0.001415 
8904 1 0.00698378 -0.051284 0.0104741 0 0 0 0 0 -0.201961 0 0 -0.000290873 0 0 0 0.001415 
9219 1 -0.0350531 -0.0474779 0.00923787 0 0 0 0 0 -0.201961 0 0 -0.000290873 0 0 0 0.001415 
8295 1 0.0424827 -0.0477148 0.00950558 0 0 0 0 0 -0.201961 0 0 -0.000290873 0 0 0 0.001415 
165 1 0.0235443 -0.0395164 0.01026 0 0 0 -5.38169e-20 -7.18324e-19 -0.201961 6.10351e-22 8.14668e-21 -0.000290873 1.73895e-18 -1.30282e-19 1.85383e-32 0.001415 
6551 1 -0.00658842 -0.0296093 0.00974878 0 0 0 -4.35349e-19 7.05599e-20 -0.201961 5.3217e-20 -8.62522e-21 -0.000290873 -3.34687e-19 -2.065e-18 -1.43452e-34 0.001415 
9787 1 -0.0202299 -0.023698 0.0105639 0 0 0 -4.96044e-19 -6.16815e-19 -0.201961 -7.33109e-20 -9.11598e-20 -0.000290873 -3.08977e-18 2.4848e-18 -7.33168e-33 0.001415 
1406 1 0.0148736 -0.0197 0.0101391 0 0 0 6.80137e-19 1.98975e-19 -0.201961 -5.94034e-25 -1.73786e-25 -0.000290873 -4.80113e-19 1.64112e-18 -6.54942e-34 0.001415 
8588 1 -0.0403296 -0.0176897 0.0104138 0 0 0 2.17626e-19 -2.87404e-18 -0.201961 4.15989e-20 -5.4937e-19 -0.000290873 -3.99988e-17 -3.02875e-18 -6.6621e-34 0.001415 
8820 1 0.00980992 -0.0172644 0.0107416 0 0 0 0 0 -0.201961 0 0 -0.000290873 0 0 0 0.001415 
3529 1 0.0670132 -0.0166749 0.0110415 0 0 0 0 0 -0.201961 0 0 -0.000290873 0 0 0 0.001415 
4473 1 -0.0215554 -0.0144106 0.0105182 0 0 0 0 0 -0.201961 0 0 -0.000290873 0 0 0 0.001415 
5437 1 0.0244153 -0.0132218 0.0103952 0 0 0 9.49944e-19 -1.80504e-18 -0.201961 1.40353e-19 -2.66692e-19 -0.000290873 -1.17363e-17 -6.1765e-18 9.6272e-33 0.001415 
2099 1 -0.0146787 -0.0109948 0.0101279 0 0 0 4.05714e-38 -4.93492e-34 -0.201961 -3.54352e-44 -7.37266e-35 -0.000290873 4.47411e-19 -2.4659e-18 -1.59775e-33 0.001415 
3528 1 0.0516347 -0.000942708 0.00983019 0 0 0 -1.32939e-18 -6.04606e-19 -0.201961 -1.96343e-19 -8.92966e-20 -0.000290873 -3.55662e-18 7.82019e-18 8.32134e-33 0.001415 
2457 1 0.0227749 0.00368251 0.0101532 0 0 0 0 0 -0.201961 0 0 -0.000290873 0 0 0 0.001415 
6445 1 -0.0495051 0.00927345 0.0109146 0 0 0 2.16116e-21 -2.6328e-21 -0.201961 4.46497e-22 -5.43938e-22 -0.000290873 -2.84898e-18 -2.33861e-18 2.63979e-32 0.001415 
4431 1 -0.0620527 0.012605 0.0109091 0 0 0 -1.65167e-18 3.52834e-19 -0.201961 -2.54869e-19 5.44458e-20 -0.000290873 -1.37759e-18 -6.4487e-18 2.66719e-32 0.001415 
4346 1 0.0459771 0.0129104 0.00942565 0 0 0 -9.97665e-20 -3.50659e-20 -0.201961 -1.22539e-19 -4.30702e-20 -0.000290873 -1.22052e-18 3.47251e-18 -2.87672e-34 0.001415 
5820 1 0.0722357 0.0116248 0.0107037 0 0 0 6.67705e-19 -6.41776e-19 -0.201961 9.86376e-20 -9.48072e-20 -0.000290873 -3.96476e-18 -4.12495e-18 3.3563e-33 0.001415 
9995 1 -0.0283179 0.0187371 0.00938499 0 0 0 1.75267e-18 1.67432e-18 -0.201961 -1.53079e-24 -1.46236e-24 -0.000290873 -7.58407e-18 7.93897e-18 1.07778e-32 0.001415 
1280 1 -0.00826091 0.0224106 0.0100304 0 0 0 7.20085e-19 2.66741e-19 -0.201961 -6.28924e-25 -2.32972e-25 -0.000290873 -8.98085e-19 2.42444e-18 -9.39226e-34 0.001415 
3551 1 0.0378271 0.027027 0.00946139 0 0 0 1.07719e-18 -6.30168e-18 -0.201961 -9.40825e-25 5.50391e-24 -0.000290873 3.71307e-17 6.34702e-18 -1.16612e-32 0.001415 
3968 1 -0.0261983 0.0364757 0.0108465 0 0 0 1.19479e-18 -3.73785e-18 -0.201961 1.76281e-19 -5.51488e-19 -0.000290873 3.10192e-17 9.91515e-18 -5.49209e-33 0.001415 
9745 1 -0.0323504 0.0411674 0.0101528 0 0 0 0 0 -0.201961 0 0 -0.000290873 0 0 0 0.001415 
485 1 0.0142511 0.04219 0.00989204 0 0 0 -2.85397e-18 2.41902e-18 -0.201961 2.49267e-24 -2.11278e-24 -0.000290873 -1.26426e-17 -1.49158e-17 1.11474e-32 0.001415 
4098 1 0.0474587 0.0419422 0.0100974 0 0 0 -1.18819e-18 4.04011e-19 -0.201961 4.04409e-20 -1.37508e-20 -0.000290873 -2.6805e-19 -7.88332e-19 -9.46877e-33 0.001415 
4639 1 0.000319678 0.0462251 0.0104786 0 0 0 -1.18482e-18 6.37974e-19 -0.201961 -1.74983e-19 9.42207e-20 -0.000290873 4.36657e-18 8.10943e-18 -1.09549e-32 0.001415 
7349 1 0.0388392 0.0490157 0.0104466 0 0 0 -2.42875e-20 -4.10725e-19 -0.201961 -4.63796e-21 -7.84322e-20 -0.000290873 -6.47234e-18 3.82732e-19 -1.96499e-33 0.001415 
3318 1 0.0108764 -0.0748018 0.0125358 0 0 0 0 0 -0.201961 0 0 -0.000290873 0 0 0 0.001415 
5121 1 -0.0078553 -0.064238 0.0112886 0 0 0 -2.99581e-19 -1.05452e-19 -0.201961 -4.95835e-20 -1.74532e-20 -0.000290873 -7.23283e-19 2.0548e-18 3.16794e-32 0.001415 
6407 1 -0.0157638 -0.0542001 0.012158 0 0 0 -1.18786e-18 3.46306e-19 -0.201961 -1.75471e-19 5.11567e-20 -0.000290873 -1.77805e-18 -6.09883e-18 -5.17506e-33 0.001415 
4748 1 -0.0463698 -0.05198 0.0129082 0 0 0 2.61744e-18 -3.82699e-19 -0.201961 3.76247e-19 -5.50117e-20 -0.000290873 3.88711e-19 2.65856e-18 4.3902e-32 0.001415 
8903 1 0.00719176 -0.0530399 0.0126838 0 0 0 -6.11198e-20 5.16002e-19 -0.201961 -1.04268e-20 8.80281e-20 -0.000290873 -1.5632e-17 -1.8516e-18 1.93145e-32 0.001415 
8421 1 -0.0125515 -0.050364 0.0123613 0 0 0 0 0 -0.201961 0 0 -0.000290873 0 0 0 0.001415 
5040 1 0.0412118 -0.051077 0.0119384 0 0 0 0 0 -0.201961 0 0 -0.000290873 0 0 0 0.001415 
9218 1 -0.0344149 -0.0491301 0.0114451 0 0 0 -1.87184e-19 4.8452e-19 -0.201961 -3.16741e-20 8.19875e-20 -0.000290873 -1.33346e-17 -5.15154e-18 4.50857e-32 0.001415 
8294 1 0.0417911 -0.0460756 0.0117064 0 0 0 0 0 -0.201961 0 0 -0.000290873 0 0 0 0.001415 
8781 1 0.0111727 -0.0390904 0.0113515 0 0 0 -2.11733e-18 -9.65912e-19 -0.201961 -3.12586e-19 -1.426e-19 -0.000290873 7.24883e-18 -1.58898e-17 -4.05538e-33 0.001415 
7141 1 -0.0440609 -0.0300013 0.0128989 0 0 0 0 0 -0.201961 0 0 -0.000290873 0 0 0 0.001415 
6550 1 -0.00716818 -0.0295154 0.0125172 0 0 0 -3.58855e-19 5.8162e-20 -0.201961 -5.32163e-20 8.6251e-21 -0.000290873 1.33843e-19 8.25799e-19 6.06664e-35 0.001415 
9788 1 -0.0191042 -0.0222982 0.0127508 0 0 0 4.25394e-19 5.28964e-19 -0.201961 5.62814e-20 6.99841e-20 -0.000290873 1.0894e-17 -8.76097e-18 -1.07027e-32 0.001415 
1405 1 0.0162037 -0.0193109 0.0126066 0 0 0 -1.36949e-18 -4.00647e-19 -0.201961 -2.14422e-19 -6.27296e-20 -0.000290873 3.32192e-18 -1.1355e-17 -1.26252e-32 0.001415 
8819 1 0.00974619 -0.0192248 0.0127816 0 0 0 6.54762e-20 2.01384e-18 -0.201961 1.01216e-20 3.1131e-19 -0.000290873 -8.10415e-18 2.63491e-19 -3.37004e-32 0.001415 
4472 1 -0.0211077 -0.0159411 0.0128562 0 0 0 -9.02605e-19 3.08536e-18 -0.201961 -1.36965e-19 4.68184e-19 -0.000290873 2.60623e-18 7.62439e-19 2.33891e-33 0.001415 
4389 1 -0.00210167 -0.0164576 0.0115482 0 0 0 3.48042e-20 -1.69666e-20 -0.201961 8.88538e-21 -4.33152e-21 -0.000290873 -1.36245e-18 -2.79483e-18 -8.52577e-33 0.001415 
2098 1 -0.0163785 -0.0113032 0.0123695 0 0 0 -4.87412e-19 -8.84357e-20 -0.201961 -7.21741e-20 -1.30952e-20 -0.000290873 2.23706e-19 -1.23295e-18 -1.87167e-33 0.001415 
4518 1 0.00403554 -0.00678852 0.0111001 0 0 0 -1.03943e-18 1.24088e-18 -0.201961 -1.60308e-19 1.91375e-19 -0.000290873 -4.32863e-18 -3.62593e-18 -6.63148e-32 0.001415 
9888 1 -0.0548111 -0.00420847 0.0111428 0 0 0 1.12499e-19 -1.40509e-19 -0.201961 2.01126e-20 -2.51203e-20 -0.000290873 -3.46334e-18 -2.77293e-18 -2.07705e-32 0.001415 
3527 1 0.053278 -0.000195356 0.0120097 0 0 0 1.32939e-18 6.04606e-19 -0.201961 1.96343e-19 8.92966e-20 -0.000290873 -3.55662e-18 7.82019e-18 8.32134e-33 0.001415 
4852 1 -0.0576017 0.00160357 0.0127706 0 0 0 3.00179e-19 4.9253e-19 -0.201961 5.05326e-20 8.29134e-20 -0.000290873 -1.21827e-17 7.42492e-18 6.52532e-32 0.001415 
2456 1 0.0231999 0.00341526 0.0129383 0 0 0 -9.51012e-18 5.98066e-18 -0.201961 -4.16033e-18 2.61632e-18 -0.000290873 4.43508e-18 7.05242e-18 9.28865e-34 0.001415 
1470 1 -0.0541433 0.00552442 0.0113903 0 0 0 1.06383e-18 1.02516e-18 -0.201961 1.67825e-19 1.61725e-19 -0.000290873 -1.00399e-17 1.04186e-17 1.52765e-32 0.001415 
7478 1 0.0063252 0.00556124 0.0112365 0 0 0 0 0 -0.201961 0 0 -0.000290873 0 0 0 0.001415 
5545 1 -0.0302182 0.00727945 0.0115307 0 0 0 0 0 -0.201961 0 0 -0.000290873 0 0 0 0.001415 
4367 1 0.0426483 0.0117219 0.0114363 0 0 0 -2.51742e-19 2.27089e-19 -0.201961 -4.46872e-20 4.03111e-20 -0.000290873 6.71097e-18 7.4395e-18 2.1334e-32 0.001415 
4345 1 0.0473197 0.0133822 0.0118718 0 0 0 8.28095e-19 2.91059e-19 -0.201961 1.22539e-19 4.307e-20 -0.000290873 -9.51986e-19 2.7085e-18 -2.55159e-34 0.001415 
9994 1 -0.0272948 0.0197145 0.0118358 0 0 0 -1.05196e-18 -1.00493e-18 -0.201961 -1.63619e-19 -1.56304e-19 -0.000290873 6.17422e-18 -6.46315e-18 3.94738e-32 0.001415 
1279 1 -0.00741294 0.0227247 0.012712 0 0 0 -1.272e-18 -4.71188e-19 -0.201961 -1.98257e-19 -7.34402e-20 -0.000290873 -5.97397e-18 1.61271e-17 1.90154e-32 0.001415 
2812 1 0.0619348 0.0249338 0.0113889 0 0 0 2.43149e-21 1.23372e-20 -0.201961 2.64745e-21 1.34329e-20 -0.000290873 1.13413e-17 -2.23523e-18 -5.69425e-32 0.001415 
4219 1 0.00713294 0.0263879 0.0111984 0 0 0 1.6195e-21 -1.19691e-20 -0.201961 1.74104e-21 -1.28674e-20 -0.000290873 1.3916e-17 1.88292e-18 -1.8575e-33 0.001415 
3552 1 0.038076 0.0255707 0.0118751 0 0 0 -1.49771e-20 8.76172e-20 -0.201961 -3.37442e-21 1.97407e-20 -0.000290873 -1.05468e-17 -1.80284e-18 3.28324e-32 0.001415 
9955 1 0.0480973 0.0295036 0.0121705 0 0 0 0 0 -0.201961 0 0 -0.000290873 0 0 0 0.001415 
6216 1 -0.023401 0.0310553 0.0112678 0 0 0 -1.98698e-19 -9.23858e-19 -0.201961 -2.93794e-20 -1.36601e-19 -0.000290873 -3.42876e-18 7.37437e-19 -3.69713e-33 0.001415 
8775 1 0.0134757 0.0326995 0.0117538 0 0 0 5.21781e-20 -8.78138e-20 -0.201961 6.11243e-21 -1.0287e-20 -0.000290873 8.1873e-19 4.86481e-19 -3.43334e-33 0.001415 
7874 1 -0.0157052 0.0360712 0.0114818 0 0 0 -3.17483e-19 -3.75533e-19 -0.201961 -4.69021e-20 -5.54779e-20 -0.000290873 2.6277e-18 -2.22151e-18 -1.37163e-33 0.001415 
4099 1 0.0465216 0.0422608 0.0127487 0 0 0 -2.71442e-19 9.22962e-20 -0.201961 -4.04396e-20 1.37504e-20 -0.000290873 1.25278e-18 3.68442e-18 -8.00672e-33 0.001415 
9746 1 -0.0326219 0.0429159 0.0123614 0 0 0 1.21878e-19 -7.84937e-19 -0.201961 1.99907e-20 -1.28747e-19 -0.000290873 1.56428e-17 2.42886e-18 5.48666e-33 0.001415 
486 1 0.0131757 0.0431015 0.0123459 0 0 0 1.8812e-18 -1.59451e-18 -0.201961 2.87155e-19 -2.43392e-19 -0.000290873 1.29448e-18 1.52723e-18 6.54396e-32 0.001415 
8316 1 0.0241447 0.055508 0.0129135 0 0 0 0 0 -0.201961 0 0 -0.000290873 0 0 0 0.001415 
6048 1 -0.0014895 0.0671831 0.0117611 0 0 0 -6.61309e-19 -3.97395e-20 -0.201961 -1.10286e-19 -6.62736e-21 -0.000290873 1.07901e-18 -1.79558e-17 -1.97241e-33 0.001415 
3317 1 0.00879117 -0.0741345 0.0143289 0 0 0 2.58442e-17 -8.2705e-18 -0.201961 1.12676e-17 -3.60579e-18 -0.000290873 -2.31287e-17 -7.2274e-17 -8.89831e-32 0.001415 
4537 1 0.0348065 -0.0668743 0.0143068 0 0 0 8.2887e-18 -1.61417e-17 -0.201961 3.64209e-18 -7.09274e-18 -0.000290873 -2.85189e-18 -1.46443e-18 -2.61637e-33 0.001415 
5120 1 -0.00732864 -0.0640527 0.014063 0 0 0 -9.78805e-18 -3.44536e-18 -0.201961 -4.43384e-18 -1.5607e-18 -0.000290873 -9.63799e-19 2.73809e-18 4.46465e-32 0.001415 
4749 1 -0.0443437 -0.0522762 0.0148616 0 0 0 -1.71176e-17 2.50279e-18 -0.201961 -7.92702e-18 1.15902e-18 -0.000290873 4.243e-18 2.90196e-17 1.24484e-32 0.001415 
6408 1 -0.0176936 -0.0536375 0.0141501 0 0 0 2.76592e-17 -8.06375e-18 -0.201961 1.21156e-17 -3.53216e-18 -0.000290873 -2.55461e-17 -8.76251e-17 -7.14131e-33 0.001415 
9217 1 -0.0337766 -0.0507822 0.0136524 0 0 0 -8.34369e-18 2.15974e-17 -0.201961 -3.76428e-18 9.74372e-18 -0.000290873 5.31778e-17 2.05441e-17 4.14826e-32 0.001415 
5039 1 0.0393096 -0.0515993 0.0139676 0 0 0 2.44487e-17 6.71312e-18 -0.201961 1.08996e-17 2.99282e-18 -0.000290873 1.65263e-17 -6.01875e-17 -6.29871e-32 0.001415 
8420 1 -0.0130316 -0.0490822 0.0148382 0 0 0 8.09415e-18 -2.1613e-17 -0.201961 3.56708e-18 -9.52483e-18 -0.000290873 -4.54791e-17 -1.70321e-17 1.55496e-32 0.001415 
8293 1 0.0410995 -0.0444363 0.0139072 0 0 0 1.0866e-17 -2.57545e-17 -0.201961 4.81597e-18 -1.14148e-17 -0.000290873 -8.63493e-17 -3.64315e-17 1.42645e-32 0.001415 
8782 1 0.00995582 -0.0396456 0.0138455 0 0 0 1.78376e-17 8.1374e-18 -0.201961 7.91598e-18 3.61123e-18 -0.000290873 2.96799e-17 -6.50597e-17 9.8968e-33 0.001415 
164 1 0.0235073 -0.0400101 0.0130464 0 0 0 6.60398e-19 8.81469e-18 -0.201961 2.96456e-19 3.95695e-18 -0.000290873 -3.9525e-18 2.96122e-19 1.90355e-32 0.001415 
1765 1 -0.00582286 -0.0341936 0.0146003 0 0 0 2.06033e-17 -6.44754e-18 -0.201961 9.06374e-18 -2.83639e-18 -0.000290873 -1.29897e-17 -4.15088e-17 -1.14997e-32 0.001415 
2898 1 -0.0015393 -0.0260351 0.0148725 0 0 0 1.5479e-17 -3.0557e-18 -0.201961 6.78949e-18 -1.34031e-18 -0.000290873 -1.35908e-18 -6.88459e-18 7.28075e-33 0.001415 
1113 1 0.057839 -0.0250229 0.0137291 0 0 0 2.29471e-17 1.17729e-17 -0.201961 1.01636e-17 5.21439e-18 -0.000290873 4.24471e-17 -8.27355e-17 -9.48002e-32 0.001415 
2604 1 -0.0264828 -0.0239558 0.014597 0 0 0 2.15482e-17 -9.38199e-19 -0.201961 9.46895e-18 -4.12273e-19 -0.000290873 -2.17854e-18 -5.00359e-17 6.56312e-33 0.001415 
8818 1 0.00968245 -0.0211851 0.0148217 0 0 0 7.12027e-19 2.18997e-17 -0.201961 3.34483e-19 1.02876e-17 -0.000290873 5.11146e-17 -1.66189e-18 -1.5323e-32 0.001415 
3530 1 0.0663652 -0.0174708 0.0136789 0 0 0 1.51997e-17 1.86682e-17 -0.201961 6.51234e-18 7.99844e-18 -0.000290873 1.65428e-17 -1.34692e-17 -6.43035e-32 0.001415 
8587 1 -0.0404076 -0.0166605 0.0130488 0 0 0 9.9526e-19 -1.31438e-17 -0.201961 5.19397e-19 -6.85933e-18 -0.000290873 -8.3873e-18 -6.35096e-19 1.04837e-32 0.001415 
4388 1 -0.00265555 -0.0161876 0.0143103 0 0 0 1.01145e-17 -4.93068e-18 -0.201961 4.5072e-18 -2.19721e-18 -0.000290873 1.79968e-18 3.69173e-18 -8.56605e-33 0.001415 
2097 1 -0.0180782 -0.0116116 0.0146111 0 0 0 2.48587e-17 4.51035e-18 -0.201961 1.10556e-17 2.00593e-18 -0.000290873 1.55105e-17 -8.5486e-17 -2.00985e-32 0.001415 
5436 1 0.0238697 -0.0121851 0.0129714 0 0 0 -6.05958e-19 1.15141e-18 -0.201961 -8.39159e-20 1.59453e-19 -0.000290873 -1.90117e-17 -1.00053e-17 -1.64316e-32 0.001415 
4519 1 0.0050482 -0.00799743 0.01345 0 0 0 -1.06522e-17 1.27166e-17 -0.201961 -5.10035e-18 6.0888e-18 -0.000290873 3.55753e-17 2.98001e-17 -2.84571e-32 0.001415 
9887 1 -0.0551901 -0.00373509 0.013907 0 0 0 7.1015e-18 -8.86967e-18 -0.201961 3.20987e-18 -4.00907e-18 -0.000290873 -1.34477e-18 -1.07669e-18 -1.26461e-32 0.001415 
4853 1 -0.0586257 -7.65915e-05 0.0148047 0 0 0 1.2809e-17 2.10168e-17 -0.201961 5.81453e-18 9.54041e-18 -0.000290873 5.20796e-17 -3.17406e-17 2.27753e-33 0.001415 
9744 1 -0.0476714 0.00124731 0.0136913 0 0 0 8.83922e-20 1.00686e-19 -0.201961 1.68042e-20 1.91414e-20 -0.000290873 -4.12485e-18 3.6212e-18 2.04608e-32 0.001415 
3403 1 0.0399954 0.00144601 0.0138262 0 0 0 -2.04792e-17 9.6912e-19 -0.201961 -9.09067e-18 4.3019e-19 -0.000290873 2.85123e-18 6.02515e-17 5.9814e-34 0.001415 
3526 1 0.0549212 0.000551996 0.0141891 0 0 0 -2.55846e-17 -1.16359e-17 -0.201961 -1.12509e-17 -5.11693e-18 -0.000290873 -4.03191e-17 8.86524e-17 -1.90244e-31 0.001415 
3843 1 -0.0432547 0.00201405 0.0144117 0 0 0 1.98686e-17 1.35377e-17 -0.201961 8.80973e-18 6.00262e-18 -0.000290873 4.43675e-17 -6.51158e-17 -4.32128e-33 0.001415 
6238 1 0.0476834 0.00358837 0.0139472 0 0 0 2.70405e-17 -1.73983e-17 -0.201961 1.15519e-17 -7.43268e-18 -0.000290873 -4.06226e-17 -6.31357e-17 -3.79159e-32 0.001415 
1469 1 -0.0554428 0.00427207 0.0135701 0 0 0 1.81708e-17 1.75103e-17 -0.201961 8.28576e-18 7.9846e-18 -0.000290873 4.90337e-17 -5.08831e-17 -3.1859e-32 0.001415 
7479 1 0.00708078 0.00479504 0.013854 0 0 0 -1.33496e-17 1.35374e-17 -0.201961 -5.97592e-18 6.05996e-18 -0.000290873 -9.9432e-18 -9.80532e-18 -1.39182e-32 0.001415 
6444 1 -0.0485008 0.00805 0.0132606 0 0 0 -1.87632e-20 2.2858e-20 -0.201961 -5.85156e-20 7.12858e-20 -0.000290873 -1.58056e-17 -1.29742e-17 -3.31704e-32 0.001415 
5546 1 -0.0286421 0.00814112 0.0137175 0 0 0 -2.63938e-17 -1.44299e-17 -0.201961 -1.13392e-17 -6.19929e-18 -0.000290873 -5.18693e-17 9.48746e-17 -3.22307e-32 0.001415 
7897 1 0.0202104 0.0106666 0.0131134 0 0 0 2.68608e-19 1.28035e-18 -0.201961 4.23993e-20 2.02101e-19 -0.000290873 -1.10458e-17 2.31734e-18 1.15466e-32 0.001415 
4366 1 0.0434972 0.010956 0.014025 0 0 0 -1.51944e-17 1.37065e-17 -0.201961 -6.77247e-18 6.10926e-18 -0.000290873 -2.58978e-18 -2.87092e-18 -1.42793e-33 0.001415 
4430 1 -0.0607358 0.0123237 0.0133982 0 0 0 -1.67305e-17 3.57402e-18 -0.201961 -8.01844e-18 1.71292e-18 -0.000290873 1.05519e-17 4.93951e-17 1.88084e-32 0.001415 
5821 1 0.071151 0.0126674 0.0131006 0 0 0 -6.67705e-19 6.41776e-19 -0.201961 -9.86376e-20 9.48072e-20 -0.000290873 -3.96476e-18 -4.12495e-18 3.3563e-33 0.001415 
4344 1 0.0486622 0.0138541 0.014318 0 0 0 -2.27711e-17 -8.00358e-18 -0.201961 -9.97547e-18 -3.50618e-18 -0.000290873 -1.67577e-17 4.76776e-17 4.58705e-32 0.001415 
5629 1 -0.00809486 0.0186934 0.0141913 0 0 0 2.20087e-17 3.85011e-19 -0.201961 9.7622e-18 1.70776e-19 -0.000290873 9.85189e-19 -5.63171e-17 4.66123e-34 0.001415 
9993 1 -0.0262716 0.020692 0.0142867 0 0 0 -1.32362e-17 -1.26445e-17 -0.201961 -6.14787e-18 -5.87304e-18 -0.000290873 -3.92137e-17 4.10487e-17 -2.074e-33 0.001415 
3553 1 0.038325 0.0241144 0.0142889 0 0 0 -3.23458e-18 1.89226e-17 -0.201961 -1.44956e-18 8.48007e-18 -0.000290873 5.52988e-17 9.45263e-18 3.1275e-32 0.001415 
2811 1 0.0616855 0.0236687 0.013908 0 0 0 4.36269e-18 2.21359e-17 -0.201961 1.98332e-18 1.00632e-17 -0.000290873 -7.43202e-18 1.46475e-18 -4.52679e-32 0.001415 
4218 1 0.00694369 0.0277865 0.0136513 0 0 0 2.7292e-18 -2.01706e-17 -0.201961 1.25584e-18 -9.28147e-18 -0.000290873 -4.61842e-17 -6.24901e-18 -1.73004e-32 0.001415 
9956 1 0.047731 0.0274693 0.0141035 0 0 0 4.40877e-18 2.44854e-17 -0.201961 1.94051e-18 1.07772e-17 -0.000290873 7.03936e-17 -1.26749e-17 -6.66199e-33 0.001415 
6007 1 0.0347873 0.0296881 0.0138734 0 0 0 6.54718e-18 7.33596e-18 -0.201961 2.93142e-18 3.28459e-18 -0.000290873 -5.99229e-18 5.34799e-18 2.15704e-33 0.001415 
8774 1 0.0137081 0.0323084 0.014547 0 0 0 -4.44527e-18 7.48122e-18 -0.201961 -1.97668e-18 3.32669e-18 -0.000290873 5.30246e-19 3.15067e-19 5.33615e-33 0.001415 
6215 1 -0.0229502 0.0331509 0.0131156 0 0 0 1.25757e-19 5.84713e-19 -0.201961 1.64676e-20 7.65672e-20 -0.000290873 9.36836e-18 -2.01489e-18 -2.15223e-33 0.001415 
3967 1 -0.0257836 0.0351781 0.013327 0 0 0 -7.58799e-18 2.37388e-17 -0.201961 -3.33081e-18 1.04203e-17 -0.000290873 5.61035e-17 1.79332e-17 4.44425e-32 0.001415 
7873 1 -0.0162209 0.0354611 0.0141967 0 0 0 9.70923e-18 1.14845e-17 -0.201961 4.33161e-18 5.12362e-18 -0.000290873 -5.45216e-18 4.60936e-18 -9.56708e-33 0.001415 
6847 1 -0.0500743 0.0395872 0.0143534 0 0 0 -2.5476e-17 1.09884e-17 -0.201961 -1.08543e-17 4.68169e-18 -0.000290873 2.9532e-17 6.84686e-17 3.44834e-32 0.001415 
487 1 0.0121003 0.044013 0.0147998 0 0 0 1.30857e-17 -1.10914e-17 -0.201961 6.34793e-18 -5.3805e-18 -0.000290873 -3.77036e-17 -4.44829e-17 -2.20483e-32 0.001415 
9747 1 -0.0328934 0.0446643 0.0145701 0 0 0 3.81547e-18 -2.4573e-17 -0.201961 1.7152e-18 -1.10465e-17 -0.000290873 -6.75365e-17 -1.04864e-17 -3.13104e-32 0.001415 
4638 1 0.00148191 0.0455993 0.0129819 0 0 0 1.11264e-18 -5.99107e-19 -0.201961 1.58139e-19 -8.51511e-20 -0.000290873 -2.2251e-18 -4.13237e-18 -5.30658e-33 0.001415 
7348 1 0.0388741 0.0496065 0.0132141 0 0 0 -6.57662e-19 -1.11217e-17 -0.201961 -3.01807e-19 -5.10384e-18 -0.000290873 -4.60316e-18 2.722e-19 -1.30504e-33 0.001415 
8315 1 0.0261215 0.0546907 0.0147664 0 0 0 -2.4914e-17 1.03002e-17 -0.201961 -1.08934e-17 4.50362e-18 -0.000290873 2.95609e-17 7.1502e-17 1.35609e-31 0.001415 
4831 1 0.0293284 0.0560787 0.0133828 0 0 0 2.11228e-17 -1.1742e-17 -0.201961 9.36714e-18 -5.20712e-18 -0.000290873 -4.44447e-17 -7.99521e-17 -2.36714e-32 0.001415 
6909 1 0.00964204 0.0590336 0.0134169 0 0 0 6.28466e-18 -3.78668e-18 -0.201961 9.4204e-19 -5.67604e-19 -0.000290873 -1.30036e-17 -2.15818e-17 -8.96564e-32 0.001415 
6047 1 -2.16486e-05 0.0672713 0.014179 0 0 0 -2.45545e-17 -1.47554e-18 -0.201961 -1.09715e-17 -6.593e-19 -0.000290873 -1.94497e-18 3.23664e-17 -6.30331e-33 0.001415 
7455 1 0.00864732 0.0657086 0.0143254 0 0 0 -1.00834e-18 2.39119e-17 -0.201961 -4.4846e-19 1.06348e-17 -0.000290873 7.0643e-17 2.97896e-18 1.80406e-33 0.001415 
8757 1 0.00829498 0.0765507 0.0137719 0 0 0 0 0 -0.201961 0 0 -0.000290873 0 0 0 0.001415 
3316 1 0.00670592 -0.0734672 0.016122 0 0 0 -2.58442e-17 8.2705e-18 -0.201961 -1.12676e-17 3.60579e-18 -0.000290873 -2.31287e-17 -7.2274e-17 -8.89831e-32 0.001415 
2499 1 0.0564696 -0.0568217 0.016269 0 0 0 6.42192e-19 -1.46928e-18 -0.201961 9.50585e-20 -2.17486e-19 -0.000290873 -3.99645e-18 -1.74676e-18 2.22649e-33 0.001415 
8902 1 0.00739974 -0.0547957 0.0148935 0 0 0 -2.91269e-18 2.45903e-17 -0.201961 -1.29589e-18 1.09405e-17 -0.000290873 5.62914e-17 6.66766e-18 -1.34568e-32 0.001415 
4054 1 -0.0359786 -0.0521436 0.0165555 0 0 0 0 0 -0.201961 0 0 -0.000290873 0 0 0 0.001415 
9216 1 -0.0331383 -0.0524344 0.0158596 0 0 0 8.00708e-18 -2.07261e-17 -0.201961 3.71351e-18 -9.61231e-18 -0.000290873 4.84594e-17 1.87212e-17 -2.64181e-32 0.001415 
6409 1 -0.0196234 -0.0530749 0.0161421 0 0 0 -2.76592e-17 8.06375e-18 -0.201961 -1.21156e-17 3.53216e-18 -0.000290873 -2.55461e-17 -8.76251e-17 -7.14131e-33 0.001415 
5038 1 0.0374074 -0.0521216 0.0159968 0 0 0 -2.00811e-17 -5.51387e-18 -0.201961 -1.02388e-17 -2.81138e-18 -0.000290873 1.79813e-17 -6.54864e-17 1.60484e-32 0.001415 
8292 1 0.0404079 -0.0427971 0.016108 0 0 0 -1.04325e-17 2.47271e-17 -0.201961 -4.74605e-18 1.1249e-17 -0.000290873 -6.7338e-17 -2.84104e-17 4.61823e-33 0.001415 
163 1 0.0234703 -0.0405039 0.0158327 0 0 0 -6.60477e-19 -8.81575e-18 -0.201961 -2.96471e-19 -3.95716e-18 -0.000290873 -6.1443e-18 4.60332e-19 1.69269e-32 0.001415 
8783 1 0.00873888 -0.0402008 0.0163394 0 0 0 -1.74795e-17 -7.97402e-18 -0.201961 -7.85462e-18 -3.58323e-18 -0.000290873 2.37061e-17 -5.1965e-17 1.12091e-32 0.001415 
1766 1 -0.00794199 -0.0335305 0.0163548 0 0 0 -1.6902e-17 5.28928e-18 -0.201961 -8.50423e-18 2.6613e-18 -0.000290873 -1.42572e-17 -4.55592e-17 1.09623e-31 0.001415 
7142 1 -0.0430179 -0.0310366 0.0153174 0 0 0 -1.60233e-17 1.59047e-17 -0.201961 -7.14232e-18 7.08946e-18 -0.000290873 5.7037e-17 5.74623e-17 -4.04838e-32 0.001415 
6549 1 -0.00774795 -0.0294214 0.0152855 0 0 0 1.17457e-17 -1.90369e-18 -0.201961 5.23126e-18 -8.47865e-19 -0.000290873 -5.80743e-20 -3.58314e-19 9.33305e-33 0.001415 
1112 1 0.0563793 -0.0257718 0.016035 0 0 0 -2.29471e-17 -1.17729e-17 -0.201961 -1.01636e-17 -5.21439e-18 -0.000290873 4.24471e-17 -8.27355e-17 -9.48002e-32 0.001415 
2603 1 -0.028804 -0.0238547 0.0162128 0 0 0 -2.15482e-17 9.38199e-19 -0.201961 -9.46895e-18 4.12273e-19 -0.000290873 -2.17854e-18 -5.00359e-17 6.56312e-33 0.001415 