ITEM: TIMESTEP
205000
ITEM: NUMBER OF ATOMS
10248
ITEM: BOX BOUNDS ff ff ff
-0.2 0.2
-0.2 0.2
-0.01 0.5
ITEM: ATOMS id type x y z ix iy iz vx vy vz fx fy fz omegax omegay omegaz radius 
168 1 0.0236995 -0.0374446 0.00142312 0 0 0 0.0326147 0.435326 0.00286402 -4.3285e-08 -5.77748e-07 -0.000291053 -307.737 23.0557 2.92769e-12 0.001415 
5124 1 -0.00943529 -0.0647942 0.0021033 0 0 0 -1.07551e-17 -3.78576e-18 -0.240193 1.01889e-23 3.58645e-24 -0.000290822 2.43523e-16 -6.91833e-16 1.49142e-32 0.001415 
9891 1 -0.0536741 -0.00562861 0.00198777 0 0 0 7.12591e-18 -8.90015e-18 -0.240193 -6.75076e-24 8.43159e-24 -0.000290822 6.6289e-16 5.30744e-16 -2.89604e-31 0.001415 
8778 1 0.0127785 0.033873 0.00251208 0 0 0 -4.29714e-18 7.23193e-18 -0.240193 4.07091e-24 -6.8512e-24 -0.000290822 -4.43893e-16 -2.63757e-16 3.68596e-31 0.001415 
5123 1 -0.00890863 -0.0646088 0.00487767 0 0 0 9.81877e-18 3.45618e-18 -0.240193 -9.30185e-24 -3.27422e-24 -0.000290822 2.42074e-16 -6.87716e-16 1.77182e-32 0.001415 
167 1 0.0236487 -0.0381231 0.00420823 0 0 0 0.0225719 0.301279 0.0100693 -2.40947e-08 -3.21605e-07 -0.00029106 400.664 -30.0178 1.61875e-11 0.001415 
5439 1 0.0255064 -0.015295 0.00438064 0 0 0 6.69709e-19 -1.27255e-18 -0.240193 -6.34451e-25 1.20555e-24 -0.000290822 -5.23856e-18 -2.75692e-18 2.22076e-33 0.001415 
9890 1 -0.0540531 -0.00515523 0.00475203 0 0 0 -6.21395e-18 7.76112e-18 -0.240193 5.88681e-24 -7.35253e-24 -0.000290822 6.56884e-16 5.25935e-16 -2.89924e-31 0.001415 
5818 1 0.0744051 0.00953964 0.00504757 0 0 0 2.36848e-19 -2.27651e-19 -0.240193 -2.24379e-25 2.15666e-25 -0.000290822 -2.53159e-19 -2.63387e-19 -1.71767e-34 0.001415 
4096 1 0.0493328 0.0413049 0.00393266 0 0 0 1.78772e-17 -6.07863e-18 -0.240193 1.1533e-19 -3.92148e-20 -0.000290822 -1.0202e-15 -3.0004e-15 4.27958e-30 0.001415 
4641 1 -0.00200478 0.0474767 0.00460984 0 0 0 -2.1063e-18 1.13415e-18 -0.240193 1.99541e-24 -1.07444e-24 -0.000290822 5.34809e-18 9.93227e-18 -2.4651e-33 0.001415 
166 1 0.0235656 -0.0392318 0.00688609 0 0 0 -0.0114051 -0.15223 -0.065763 9.17281e-09 1.22434e-07 -0.000290997 -76.314 5.71746 -1.31801e-11 0.001415 
8779 1 0.0136066 -0.0379801 0.00550143 0 0 0 2.27089e-19 1.03597e-19 -0.240193 -2.15134e-25 -9.81428e-26 -0.000290822 1.55086e-18 -3.39956e-18 2.4995e-32 0.001415 
6552 1 -0.00600865 -0.0297033 0.00611819 0 0 0 9.2444e-19 -1.4983e-19 -0.240193 -8.75772e-25 1.41942e-25 -0.000290822 -1.49622e-19 -9.23158e-19 -2.17643e-33 0.001415 
1407 1 0.0135434 -0.0200891 0.00680953 0 0 0 -8.62002e-19 -2.5218e-19 -0.240193 8.16621e-25 2.38904e-25 -0.000290822 -5.83708e-19 1.99523e-18 9.84921e-36 0.001415 
8589 1 -0.0402517 -0.0187189 0.00691649 0 0 0 7.32384e-20 -9.67212e-19 -0.240193 -6.93827e-26 9.16292e-25 -0.000290822 -4.51273e-18 -3.41709e-19 -1.37893e-31 0.001415 
5438 1 0.0249608 -0.0142584 0.00695682 0 0 0 5.31885e-16 -1.01066e-15 -0.240193 1.53614e-17 -2.9189e-17 -0.000290822 -2.35494e-14 -1.23934e-14 -1.48247e-28 0.001415 
2100 1 -0.012979 -0.0106864 0.00702414 0 0 0 1.26543e-15 2.29598e-16 -0.240193 3.80274e-17 6.89966e-18 -0.000290822 8.12757e-16 -4.4795e-15 3.05077e-28 0.001415 
4516 1 0.00201022 -0.00437069 0.00553812 0 0 0 -1.24695e-18 1.48861e-18 -0.240193 1.18131e-24 -1.41024e-24 -0.000290822 5.59503e-18 4.68674e-18 -2.89594e-32 0.001415 
6447 1 -0.0515136 0.0117203 0.00536051 0 0 0 -1.27927e-18 1.55846e-18 -0.240193 1.21192e-24 -1.47641e-24 -0.000290822 3.38237e-18 2.77645e-18 -3.23422e-32 0.001415 
4347 1 0.0446345 0.0124385 0.00611728 0 0 0 -9.14459e-19 -3.21414e-19 -0.240193 8.66316e-25 3.04493e-25 -0.000290822 8.33333e-19 -2.37093e-18 -1.24873e-32 0.001415 
9996 1 -0.0293411 0.0177597 0.00607194 0 0 0 -1.9898e-18 -1.90085e-18 -0.240193 1.88505e-24 1.80078e-24 -0.000290822 -9.2698e-18 9.70358e-18 1.08542e-32 0.001415 
1281 1 -0.00910888 0.0220965 0.00648652 0 0 0 -8.68961e-19 -3.21889e-19 -0.240193 8.23213e-25 3.04943e-25 -0.000290822 -1.07235e-18 2.8949e-18 -1.2427e-33 0.001415 
4221 1 0.00751144 0.0235905 0.00543037 0 0 0 5.01577e-20 -3.70698e-19 -0.240193 -4.75171e-26 3.51182e-25 -0.000290822 3.31766e-18 4.48899e-19 -1.15646e-32 0.001415 
3550 1 0.0375782 0.0284832 0.00618543 0 0 0 -1.26243e-18 7.38536e-18 -0.240193 1.19597e-24 -6.99655e-24 -0.000290822 8.61956e-17 1.47341e-17 -2.39912e-32 0.001415 
2814 1 0.0624335 0.0274639 0.00548829 0 0 0 1.78694e-19 9.0668e-19 -0.240193 -1.69287e-25 -8.58947e-25 -0.000290822 -1.67109e-18 3.2935e-19 1.11996e-32 0.001415 
8777 1 0.0130109 0.0334818 0.00530526 0 0 0 4.05368e-18 -6.8222e-18 -0.240193 -3.84027e-24 6.46303e-24 -0.000290822 -4.4219e-16 -2.62745e-16 3.68184e-31 0.001415 
484 1 0.0153265 0.0412785 0.00657594 0 0 0 3.21057e-18 -2.72128e-18 -0.240193 -3.04155e-24 2.57801e-24 -0.000290822 -1.73279e-17 -2.04435e-17 1.33308e-32 0.001415 
4097 1 0.0483957 0.0416236 0.00658394 0 0 0 -1.61952e-17 5.50674e-18 -0.240193 -1.15332e-19 3.92153e-20 -0.000290822 -1.01881e-15 -2.9963e-15 4.2594e-30 0.001415 
4640 1 -0.000842548 0.0468509 0.00711314 0 0 0 -1.27942e-15 6.88909e-16 -0.240193 -3.4257e-17 1.84459e-17 -0.000290822 6.54697e-15 1.21588e-14 -6.40384e-28 0.001415 
7350 1 0.0388042 0.0484249 0.00681701 0 0 0 -8.37043e-21 -1.41552e-19 -0.240193 7.92976e-27 1.341e-25 -0.000290822 -2.91739e-18 1.72515e-19 1.45391e-33 0.001415 
5122 1 -0.00838197 -0.0644234 0.00765205 0 0 0 -1.48717e-16 -5.23479e-17 -0.240193 -8.02468e-18 -2.82466e-18 -0.000290822 -5.40436e-16 1.53534e-15 -3.99059e-29 0.001415 
9219 1 -0.0350531 -0.0474779 0.00837567 0 0 0 0 0 -0.240193 0 0 -0.000290822 0 0 0 0.001415 
8295 1 0.0424827 -0.0477148 0.00864338 0 0 0 0 0 -0.240193 0 0 -0.000290822 0 0 0 0.001415 
8780 1 0.0123897 -0.0385353 0.00799538 0 0 0 4.01591e-17 1.83203e-17 -0.240193 2.80984e-19 1.28183e-19 -0.000290822 -3.25488e-15 7.13485e-15 -1.65832e-29 0.001415 
6551 1 -0.00658842 -0.0296093 0.00888658 0 0 0 5.82953e-18 -9.4483e-19 -0.240193 4.5169e-20 -7.32083e-21 -0.000290822 -1.66757e-16 -1.02888e-15 3.27204e-31 0.001415 
9889 1 -0.0544321 -0.00468185 0.0075163 0 0 0 1.77906e-16 -2.22202e-16 -0.240193 8.50663e-18 -1.06246e-17 -0.000290822 -2.97348e-15 -2.38072e-15 1.45279e-29 0.001415 
4517 1 0.00302288 -0.0055796 0.00788801 0 0 0 1.24695e-18 -1.48861e-18 -0.240193 -1.18131e-24 1.41024e-24 -0.000290822 5.59503e-18 4.68674e-18 -2.89594e-32 0.001415 
3528 1 0.0516347 -0.000942708 0.00896799 0 0 0 -2.48442e-17 -1.12991e-17 -0.240193 -1.61663e-19 -7.35241e-20 -0.000290822 -1.62513e-15 3.57328e-15 -1.88742e-29 0.001415 
7477 1 0.00556963 0.00632744 0.0077569 0 0 0 -7.03073e-18 7.1296e-18 -0.240193 -2.46527e-18 2.49994e-18 -0.000290822 -8.926e-18 -8.80223e-18 3.58586e-30 0.001415 
6446 1 -0.0505093 0.0104969 0.00770646 0 0 0 -4.9182e-18 5.99152e-18 -0.240193 -6.26978e-19 7.63806e-19 -0.000290822 1.65238e-16 1.35637e-16 2.97059e-30 0.001415 
5819 1 0.0733204 0.0105822 0.00744451 0 0 0 2.25917e-16 -2.17144e-16 -0.240193 1.22477e-17 -1.1772e-17 -0.000290822 -8.80436e-17 -9.16007e-17 5.13564e-29 0.001415 
4368 1 0.0417993 0.0124877 0.00798531 0 0 0 0 0 -0.240193 0 0 -0.000290822 0 0 0 0.001415 
4346 1 0.0459771 0.0129104 0.00856345 0 0 0 -1.51182e-17 -5.31376e-18 -0.240193 -1.20063e-19 -4.21997e-20 -0.000290822 -5.71953e-16 1.62727e-15 1.55741e-30 0.001415 
9995 1 -0.0283179 0.0187371 0.00852279 0 0 0 1.9898e-18 1.90085e-18 -0.240193 -1.88505e-24 -1.80078e-24 -0.000290822 -9.2698e-18 9.70358e-18 1.08542e-32 0.001415 
4220 1 0.00732219 0.0249892 0.00788328 0 0 0 2.41332e-18 -1.7836e-17 -0.240193 1.92019e-20 -1.41914e-19 -0.000290822 -3.16062e-15 -4.27652e-16 6.66479e-31 0.001415 
2813 1 0.0621842 0.0261988 0.00800748 0 0 0 2.29628e-18 1.16511e-17 -0.240193 2.15039e-20 1.09109e-19 -0.000290822 3.18163e-15 -6.27056e-16 -1.43639e-30 0.001415 
3551 1 0.0378271 0.027027 0.00859919 0 0 0 1.26243e-18 -7.38536e-18 -0.240193 -1.19597e-24 6.99655e-24 -0.000290822 8.61956e-17 1.47341e-17 -2.39912e-32 0.001415 
8776 1 0.0132433 0.0330907 0.00809845 0 0 0 -1.29996e-18 2.18779e-18 -0.240193 -1.45099e-20 2.44197e-20 -0.000290822 8.5304e-16 5.06868e-16 1.29716e-30 0.001415 
3969 1 -0.0266131 0.0377733 0.00750376 0 0 0 -1.49499e-16 4.67704e-16 -0.240193 -6.7554e-18 2.1134e-17 -0.000290822 -6.02722e-15 -1.92657e-15 3.52313e-29 0.001415 
7875 1 -0.0151895 0.0366812 0.00790469 0 0 0 6.25266e-18 7.39592e-18 -0.240193 5.03993e-20 5.96145e-20 -0.000290822 1.42647e-15 -1.20596e-15 5.60489e-30 0.001415 
485 1 0.0142511 0.04219 0.00902983 0 0 0 -3.21057e-18 2.72128e-18 -0.240193 3.04155e-24 -2.57801e-24 -0.000290822 -1.73279e-17 -2.04435e-17 1.33308e-32 0.001415 
5121 1 -0.0078553 -0.064238 0.0104264 0 0 0 1.06399e-16 3.74522e-17 -0.240193 7.27573e-18 2.56103e-18 -0.000290822 -1.05919e-15 3.00908e-15 2.5943e-28 0.001415 
6406 1 -0.013834 -0.0547628 0.00930378 0 0 0 2.23135e-17 -6.50525e-18 -0.240193 1.46197e-19 -4.26222e-20 -0.000290822 -8.12058e-16 -2.78542e-15 1.40659e-29 0.001415 
4747 1 -0.048396 -0.0516837 0.0100925 0 0 0 -6.70047e-17 9.79685e-18 -0.240193 -4.49096e-19 6.56629e-20 -0.000290822 2.49884e-16 1.70906e-15 4.64232e-30 0.001415 
8904 1 0.00698378 -0.051284 0.00961193 0 0 0 0 0 -0.240193 0 0 -0.000290822 0 0 0 0.001415 
9218 1 -0.0344149 -0.0491301 0.0105829 0 0 0 -1.9287e-17 4.99238e-17 -0.240193 -2.19404e-19 5.6792e-19 -0.000290822 -1.14534e-14 -4.42478e-15 -7.35401e-29 0.001415 
8294 1 0.0417911 -0.0460756 0.0108442 0 0 0 0 0 -0.240193 0 0 -0.000290822 0 0 0 0.001415 
8781 1 0.0111727 -0.0390904 0.0104893 0 0 0 -3.83682e-18 -1.75033e-18 -0.240193 4.00615e-19 1.82758e-19 -0.000290822 -5.94195e-15 1.30251e-14 2.5113e-29 0.001415 
165 1 0.0235404 -0.0395682 0.00972494 0 0 0 -0.00268462 -0.0358331 -0.0210833 1.51238e-09 2.01865e-08 -0.000291038 -10.1221 0.758349 -1.93314e-11 0.001415 
9787 1 -0.0202299 -0.023698 0.00970173 0 0 0 -1.01807e-17 -1.26594e-17 -0.240193 -8.33813e-20 -1.03682e-19 -0.000290822 -6.03736e-16 4.85526e-16 -5.40788e-29 0.001415 
1406 1 0.0148736 -0.0197 0.00927695 0 0 0 8.62002e-19 2.5218e-19 -0.240193 -8.16621e-25 -2.38904e-25 -0.000290822 -5.83708e-19 1.99523e-18 9.84921e-36 0.001415 
8588 1 -0.0403296 -0.0176897 0.00955156 0 0 0 1.07083e-17 -1.41418e-16 -0.240193 1.15177e-19 -1.52107e-18 -0.000290822 2.51805e-14 1.90669e-15 1.6888e-28 0.001415 
4389 1 -0.00210167 -0.0164576 0.010686 0 0 0 2.86221e-17 -1.39529e-17 -0.240193 5.10858e-19 -2.49037e-19 -0.000290822 3.40542e-18 6.98565e-18 -4.74358e-29 0.001415 
8820 1 0.00980992 -0.0172644 0.00987935 0 0 0 0 0 -0.240193 0 0 -0.000290822 0 0 0 0.001415 
3529 1 0.0670132 -0.0166749 0.0101793 0 0 0 1.70001e-18 2.08795e-18 -0.240193 3.66205e-19 4.49772e-19 -0.000290822 -8.62275e-17 7.02065e-17 -2.24309e-29 0.001415 
4473 1 -0.0215554 -0.0144106 0.00965603 0 0 0 0 0 -0.240193 0 0 -0.000290822 0 0 0 0.001415 
5437 1 0.0244153 -0.0132218 0.009533 0 0 0 -4.94594e-16 9.39803e-16 -0.240193 -1.45612e-17 2.76684e-17 -0.000290822 -1.40445e-14 -7.39125e-15 4.1551e-29 0.001415 
2099 1 -0.0146787 -0.0109948 0.00926572 0 0 0 -1.22027e-15 -2.21404e-16 -0.240193 -3.66822e-17 -6.65558e-18 -0.000290822 1.10748e-15 -6.10385e-15 1.84968e-28 0.001415 
4518 1 0.00403554 -0.00678852 0.0102379 0 0 0 -5.06008e-17 6.04071e-17 -0.240193 -5.46548e-19 6.52469e-19 -0.000290822 -2.10351e-14 -1.76203e-14 -7.32107e-28 0.001415 
9888 1 -0.0548111 -0.00420847 0.0102806 0 0 0 -1.52517e-16 1.90492e-16 -0.240193 -7.97381e-18 9.95916e-18 -0.000290822 -2.64738e-15 -2.11963e-15 5.76224e-29 0.001415 
2457 1 0.0227749 0.00368251 0.00929097 0 0 0 0 0 -0.240193 0 0 -0.000290822 0 0 0 0.001415 
1470 1 -0.0541433 0.00552442 0.0105281 0 0 0 6.03102e-17 5.81182e-17 -0.240193 6.5655e-19 6.32687e-19 -0.000290822 -2.30857e-14 2.39565e-14 -1.67039e-28 0.001415 
7478 1 0.0063252 0.00556124 0.0103743 0 0 0 -1.38623e-17 1.40573e-17 -0.240193 2.0758e-18 -2.10499e-18 -0.000290822 -4.31136e-16 -4.25158e-16 -2.09796e-28 0.001415 
5545 1 -0.0302182 0.00727945 0.0106685 0 0 0 0 0 -0.240193 0 0 -0.000290822 0 0 0 0.001415 
6445 1 -0.0495051 0.00927345 0.0100524 0 0 0 -7.18837e-19 8.75712e-19 -0.240193 5.6197e-19 -6.84611e-19 -0.000290822 1.71784e-15 1.41011e-15 1.7288e-29 0.001415 
4431 1 -0.0620527 0.012605 0.0100469 0 0 0 -7.97674e-17 1.70401e-17 -0.240193 -8.35632e-19 1.7851e-19 -0.000290822 -4.92076e-15 -2.30348e-14 5.76593e-29 0.001415 
4367 1 0.0426483 0.0117219 0.0105741 0 0 0 -5.30256e-17 4.78329e-17 -0.240193 -6.7863e-19 6.12174e-19 -0.000290822 -5.3282e-15 -5.90661e-15 -3.34954e-28 0.001415 
4345 1 0.0473197 0.0133822 0.0110096 0 0 0 -2.17289e-17 -7.63727e-18 -0.240193 -5.87252e-19 -2.06408e-19 -0.000290822 1.97099e-15 -5.60769e-15 -2.2538e-28 0.001415 
5820 1 0.0722357 0.0116248 0.00984145 0 0 0 -2.11855e-16 2.03628e-16 -0.240193 -1.20219e-17 1.1555e-17 -0.000290822 -1.72549e-15 -1.7952e-15 8.04611e-30 0.001415 
9994 1 -0.0272948 0.0197145 0.0109736 0 0 0 -7.9401e-17 -7.58516e-17 -0.240193 -9.31606e-19 -8.8996e-19 -0.000290822 1.68054e-14 -1.75918e-14 -3.61627e-28 0.001415 
1280 1 -0.00826091 0.0224106 0.00916816 0 0 0 8.68961e-19 3.21889e-19 -0.240193 -8.23213e-25 -3.04943e-25 -0.000290822 -1.07235e-18 2.8949e-18 -1.2427e-33 0.001415 
2812 1 0.0619348 0.0249338 0.0105267 0 0 0 1.48506e-17 7.53506e-17 -0.240193 1.97759e-19 1.00341e-18 -0.000290822 -8.51578e-15 1.67835e-15 6.43928e-29 0.001415 
4219 1 0.00713294 0.0263879 0.0103362 0 0 0 9.64207e-18 -7.12611e-17 -0.240193 1.3522e-19 -9.99363e-19 -0.000290822 1.83884e-14 2.48806e-15 2.04357e-28 0.001415 
3552 1 0.038076 0.0255707 0.0110129 0 0 0 -9.76873e-18 5.7148e-17 -0.240193 -1.36021e-19 7.95735e-19 -0.000290822 -1.34582e-14 -2.3005e-15 2.80889e-28 0.001415 
6216 1 -0.023401 0.0310553 0.0104056 0 0 0 -3.95737e-18 -1.84e-17 -0.240193 -2.87283e-20 -1.33574e-19 -0.000290822 -1.96023e-15 4.21594e-16 6.92465e-30 0.001415 
8775 1 0.0134757 0.0326995 0.0108916 0 0 0 -1.08458e-17 1.8253e-17 -0.240193 -1.9405e-19 3.2658e-19 -0.000290822 4.73818e-16 2.81538e-16 4.45918e-31 0.001415 
3968 1 -0.0261983 0.0364757 0.0099843 0 0 0 1.49499e-16 -4.67704e-16 -0.240193 6.7554e-18 -2.1134e-17 -0.000290822 -6.02722e-15 -1.92657e-15 3.52313e-29 0.001415 
7874 1 -0.0157052 0.0360712 0.0106196 0 0 0 1.30182e-17 1.53985e-17 -0.240193 3.86047e-19 4.56634e-19 -0.000290822 1.57803e-15 -1.3341e-15 -2.06259e-28 0.001415 
9745 1 -0.0323504 0.0411674 0.0092906 0 0 0 0 0 -0.240193 0 0 -0.000290822 0 0 0 0.001415 
4098 1 0.0474587 0.0419422 0.00923522 0 0 0 3.85107e-18 -1.30945e-18 -0.240193 4.83345e-20 -1.64348e-20 -0.000290822 8.73307e-18 2.56839e-17 2.29096e-30 0.001415 
4639 1 0.000319678 0.0462251 0.00961644 0 0 0 1.22044e-15 -6.57153e-16 -0.240193 3.27511e-17 -1.7635e-17 -0.000290822 8.22187e-15 1.52693e-14 -4.33745e-28 0.001415 
7349 1 0.0388392 0.0490157 0.00958443 0 0 0 -2.70543e-18 -4.57514e-17 -0.240193 -3.56389e-20 -6.02686e-19 -0.000290822 5.87641e-15 -3.47492e-16 -4.07631e-29 0.001415 
6048 1 -0.0014895 0.0671831 0.0108989 0 0 0 -9.41669e-17 -5.6587e-18 -0.240193 -1.16835e-18 -7.02084e-20 -0.000290822 1.08815e-15 -1.81081e-14 -1.19502e-28 0.001415 
3318 1 0.0108764 -0.0748018 0.0116735 0 0 0 0 0 -0.240193 0 0 -0.000290822 0 0 0 0.001415 
6407 1 -0.0157638 -0.0542001 0.0112958 0 0 0 -2.23135e-17 6.50525e-18 -0.240193 -1.46197e-19 4.26222e-20 -0.000290822 -8.12058e-16 -2.78542e-15 1.40659e-29 0.001415 
4748 1 -0.0463698 -0.05198 0.012046 0 0 0 -8.86459e-18 1.2961e-18 -0.240193 -4.20084e-19 6.14212e-20 -0.000290822 -5.45013e-15 -3.72757e-14 1.39604e-28 0.001415 
8903 1 0.00719176 -0.0530399 0.0118216 0 0 0 -8.92862e-18 7.53795e-17 -0.240193 -1.05354e-19 8.89445e-19 -0.000290822 -2.1176e-14 -2.50828e-15 2.00015e-28 0.001415 
9217 1 -0.0337766 -0.0507822 0.0127902 0 0 0 -3.46389e-16 8.96617e-16 -0.240193 -1.4956e-18 3.87132e-18 -0.000290822 4.29125e-15 1.65783e-15 1.27563e-27 0.001415 
8421 1 -0.0125515 -0.050364 0.011499 0 0 0 1.09515e-17 -2.92427e-17 -0.240193 2.0536e-19 -5.48352e-19 -0.000290822 3.85943e-15 1.44537e-15 -8.0522e-28 0.001415 
5040 1 0.0412118 -0.051077 0.0110762 0 0 0 0 0 -0.240193 0 0 -0.000290822 0 0 0 0.001415 
164 1 0.0235032 -0.0400653 0.0125328 0 0 0 -0.00275483 -0.0367703 0.000115937 1.52642e-09 2.03739e-08 -0.00029105 8.21601 -0.615545 -1.82193e-11 0.001415 
7141 1 -0.0440609 -0.0300013 0.0120367 0 0 0 0 0 -0.240193 0 0 -0.000290822 0 0 0 0.001415 
6550 1 -0.00716818 -0.0295154 0.011655 0 0 0 -4.91054e-18 7.95882e-19 -0.240193 3.50014e-19 -5.6729e-20 -0.000290822 -1.79139e-16 -1.10527e-15 -5.26905e-30 0.001415 
1113 1 0.057839 -0.0250229 0.0128669 0 0 0 1.64958e-15 8.46308e-16 -0.240193 1.09313e-17 5.60823e-18 -0.000290822 1.6896e-14 -3.29327e-14 3.15946e-28 0.001415 
9788 1 -0.0191042 -0.0222982 0.0118886 0 0 0 -4.33192e-17 -5.3866e-17 -0.240193 -6.71116e-19 -8.34512e-19 -0.000290822 1.84356e-14 -1.4826e-14 9.70481e-28 0.001415 
1405 1 0.0162037 -0.0193109 0.0117444 0 0 0 -1.09218e-16 -3.19518e-17 -0.240193 -1.28198e-18 -3.75047e-19 -0.000290822 6.2981e-15 -2.15282e-14 -6.59149e-28 0.001415 
8819 1 0.00974619 -0.0192248 0.0119194 0 0 0 3.73172e-18 1.14776e-16 -0.240193 3.93436e-20 1.21009e-18 -0.000290822 -2.4521e-14 7.97252e-16 -2.15069e-28 0.001415 
3530 1 0.0663652 -0.0174708 0.0128167 0 0 0 8.35356e-16 1.02598e-15 -0.240193 1.17636e-18 1.4448e-18 -0.000290822 7.33877e-15 -5.97523e-15 -1.77807e-28 0.001415 
8587 1 -0.0404076 -0.0166605 0.0121866 0 0 0 6.26585e-17 -8.27489e-16 -0.240193 2.53819e-19 -3.35202e-18 -0.000290822 -1.08088e-14 -8.18453e-16 -4.57744e-29 0.001415 
4472 1 -0.0211077 -0.0159411 0.011994 0 0 0 -3.84347e-17 1.31381e-16 -0.240193 -3.79746e-19 1.29808e-18 -0.000290822 -3.22791e-14 -9.44307e-15 -5.20067e-28 0.001415 
5436 1 0.0238697 -0.0121851 0.0121092 0 0 0 2.08749e-18 -3.96654e-18 -0.240193 -3.10515e-19 5.90025e-19 -0.000290822 1.55939e-14 8.20668e-15 2.27477e-28 0.001415 
2098 1 -0.0163785 -0.0113032 0.0115073 0 0 0 -4.51609e-17 -8.19396e-18 -0.240193 -1.3452e-18 -2.44072e-19 -0.000290822 2.9472e-16 -1.62435e-15 -1.20109e-28 0.001415 
4519 1 0.0050482 -0.00799743 0.0125878 0 0 0 -5.64464e-16 6.73856e-16 -0.240193 -2.86689e-18 3.42249e-18 -0.000290822 2.80909e-15 2.35307e-15 1.24161e-27 0.001415 
3527 1 0.053278 -0.000195356 0.0111475 0 0 0 2.48442e-17 1.12991e-17 -0.240193 1.61663e-19 7.35241e-20 -0.000290822 -1.62513e-15 3.57328e-15 -1.88742e-29 0.001415 
4852 1 -0.0576017 0.00160357 0.0119084 0 0 0 3.92981e-17 6.44799e-17 -0.240193 4.59046e-19 7.53198e-19 -0.000290822 -1.30807e-14 7.97219e-15 5.96924e-28 0.001415 
9744 1 -0.0476714 0.00124731 0.012829 0 0 0 2.41124e-17 2.7466e-17 -0.240193 2.99423e-19 3.41067e-19 -0.000290822 -1.2466e-14 1.09439e-14 4.43006e-28 0.001415 
2456 1 0.0231999 0.00341526 0.0120761 0 0 0 -3.45693e-16 2.17397e-16 -0.240193 -1.52335e-18 9.57994e-19 -0.000290822 4.34704e-15 6.91243e-15 -2.38595e-28 0.001415 
1469 1 -0.0554428 0.00427207 0.0127079 0 0 0 7.26387e-16 6.99985e-16 -0.240193 3.31084e-18 3.19051e-18 -0.000290822 1.641e-14 -1.70289e-14 -5.02901e-29 0.001415 
6444 1 -0.0485008 0.00805 0.0123984 0 0 0 -6.11856e-17 7.45384e-17 -0.240193 -7.76807e-19 9.46333e-19 -0.000290822 -1.80726e-14 -1.48351e-14 -1.47544e-27 0.001415 
5546 1 -0.0286421 0.00814112 0.0128553 0 0 0 -1.29652e-15 -7.08828e-16 -0.240193 -6.69458e-18 -3.66002e-18 -0.000290822 -2.77386e-14 5.07369e-14 -3.90136e-27 0.001415 
7897 1 0.0202104 0.0106666 0.0122512 0 0 0 2.00116e-17 9.53876e-17 -0.240193 2.21565e-19 1.05611e-18 -0.000290822 -3.00431e-14 6.30283e-15 8.53595e-29 0.001415 
4430 1 -0.0607358 0.0123237 0.012536 0 0 0 -8.27408e-16 1.76753e-16 -0.240193 -3.68479e-18 7.87155e-19 -0.000290822 1.40239e-15 6.56482e-15 -8.68661e-29 0.001415 
5821 1 0.071151 0.0126674 0.0122384 0 0 0 -1.42984e-17 1.37432e-17 -0.240193 -2.25773e-19 2.17006e-19 -0.000290822 -1.6377e-15 -1.70386e-15 -4.33105e-29 0.001415 
1279 1 -0.00741294 0.0227247 0.0118498 0 0 0 -8.26713e-17 -3.06239e-17 -0.240193 -1.08338e-18 -4.01318e-19 -0.000290822 4.3632e-16 -1.17787e-15 -1.43261e-28 0.001415 
4218 1 0.00694369 0.0277865 0.0127891 0 0 0 1.59278e-16 -1.17717e-15 -0.240193 4.36729e-19 -3.22771e-18 -0.000290822 -3.8923e-14 -5.26653e-15 1.94617e-28 0.001415 
9955 1 0.0480973 0.0295036 0.0113083 0 0 0 0 0 -0.240193 0 0 -0.000290822 0 0 0 0.001415 
6215 1 -0.0229502 0.0331509 0.0122534 0 0 0 -9.31101e-18 -4.32921e-17 -0.240193 -1.32249e-19 -6.14899e-19 -0.000290822 2.95614e-14 -6.3579e-15 -2.70287e-28 0.001415 
3967 1 -0.0257836 0.0351781 0.0124648 0 0 0 -3.00421e-16 9.39859e-16 -0.240193 -1.43966e-18 4.50394e-18 -0.000290822 1.52854e-14 4.8859e-15 -7.53819e-28 0.001415 
4099 1 0.0465216 0.0422608 0.0118865 0 0 0 1.75808e-17 -5.97785e-18 -0.240193 6.28275e-19 -2.13627e-19 -0.000290822 -3.68659e-16 -1.08422e-15 -2.35157e-28 0.001415 
9746 1 -0.0326219 0.0429159 0.0114992 0 0 0 1.32943e-17 -8.56202e-17 -0.240193 1.52961e-19 -9.85123e-19 -0.000290822 2.31919e-14 3.60103e-15 -3.12762e-28 0.001415 
486 1 0.0131757 0.0431015 0.0114837 0 0 0 9.61907e-17 -8.15311e-17 -0.240193 1.01677e-18 -8.61815e-19 -0.000290822 2.06002e-14 2.43042e-14 -2.95576e-28 0.001415 
4638 1 0.00148191 0.0455993 0.0121197 0 0 0 6.84837e-18 -3.68755e-18 -0.240193 7.21004e-19 -3.88229e-19 -0.000290822 -4.20672e-15 -7.81256e-15 7.32097e-28 0.001415 
7348 1 0.0388741 0.0496065 0.0123519 0 0 0 -3.65222e-17 -6.17624e-16 -0.240193 -1.73694e-19 -2.93732e-18 -0.000290822 4.01683e-15 -2.37529e-16 2.07573e-29 0.001415 
8316 1 0.0241447 0.055508 0.0120513 0 0 0 0 0 -0.240193 0 0 -0.000290822 0 0 0 0.001415 
4831 1 0.0293284 0.0560787 0.0125206 0 0 0 9.5016e-16 -5.28186e-16 -0.240193 4.89533e-18 -2.72127e-18 -0.000290822 -2.04032e-14 -3.67036e-14 -6.57267e-28 0.001415 
6909 1 0.00964204 0.0590336 0.0125547 0 0 0 1.98463e-16 -1.19579e-16 -0.240193 1.77211e-18 -1.06774e-18 -0.000290822 3.36676e-14 5.58774e-14 -1.00122e-27 0.001415 
8757 1 0.00829498 0.0765507 0.0129097 0 0 0 0 0 -0.240193 0 0 -0.000290822 0 0 0 0.001415 
3317 1 0.00879117 -0.0741345 0.0134667 0 0 0 1.25181e-15 -4.00598e-16 -0.240193 2.23554e-18 -7.15404e-19 -0.000290822 -1.98184e-14 -6.19297e-14 -1.71479e-27 0.001415 
4537 1 0.0348065 -0.0668743 0.0134446 0 0 0 4.56666e-16 -8.89326e-16 -0.240193 -4.32624e-22 8.42507e-22 -0.000290822 9.44195e-15 4.84841e-15 -4.63252e-29 0.001415 
5120 1 -0.00732864 -0.0640527 0.0132008 0 0 0 -5.33585e-16 -1.8782e-16 -0.240193 7.49499e-19 2.63821e-19 -0.000290822 2.40122e-15 -6.82172e-15 3.47623e-28 0.001415 
8902 1 0.00739974 -0.0547957 0.0140313 0 0 0 -1.71131e-16 1.44476e-15 -0.240193 1.05524e-19 -8.90885e-19 -0.000290822 1.5826e-14 1.87457e-15 7.04786e-29 0.001415 
4749 1 -0.0443437 -0.0522762 0.0139994 0 0 0 -1.10907e-15 1.62159e-16 -0.240193 8.70303e-19 -1.27248e-19 -0.000290822 3.47336e-15 2.37557e-14 -7.98217e-29 0.001415 
6408 1 -0.0176936 -0.0536375 0.0132879 0 0 0 2.56193e-15 -7.46901e-16 -0.240193 2.32124e-17 -6.76733e-18 -0.000290822 -2.61547e-14 -8.97125e-14 -2.56429e-27 0.001415 
5039 1 0.0393096 -0.0515993 0.0131054 0 0 0 1.63627e-15 4.49287e-16 -0.240193 1.05347e-17 2.89263e-18 -0.000290822 1.37265e-14 -4.99909e-14 2.46719e-27 0.001415 
8420 1 -0.0130316 -0.0490822 0.013976 0 0 0 4.70129e-16 -1.25534e-15 -0.240193 -2.05816e-19 5.49569e-19 -0.000290822 -1.16194e-14 -4.3515e-15 1.35185e-27 0.001415 
8293 1 0.0410995 -0.0444363 0.013045 0 0 0 6.59687e-16 -1.56358e-15 -0.240193 2.8395e-18 -6.73014e-18 -0.000290822 -8.88989e-14 -3.75071e-14 -7.92471e-29 0.001415 
8782 1 0.00995582 -0.0396456 0.0129833 0 0 0 1.06696e-15 4.86742e-16 -0.240193 -6.82644e-19 -3.11418e-19 -0.000290822 1.23505e-14 -2.70728e-14 -1.06429e-27 0.001415 
1765 1 -0.00582286 -0.0341936 0.0137381 0 0 0 1.27232e-15 -3.98158e-16 -0.240193 -1.20534e-21 3.77196e-22 -0.000290822 -1.59988e-14 -5.11245e-14 4.64341e-28 0.001415 
7142 1 -0.0430179 -0.0310366 0.0144552 0 0 0 -9.67345e-16 9.60186e-16 -0.240193 9.16418e-22 -9.09636e-22 -0.000290822 2.60946e-14 2.62891e-14 -1.61902e-28 0.001415 
6549 1 -0.00774795 -0.0294214 0.0144233 0 0 0 6.56419e-16 -1.0639e-16 -0.240193 -3.95805e-19 6.41507e-20 -0.000290822 8.96765e-16 5.53297e-15 8.91492e-29 0.001415 
2898 1 -0.0015393 -0.0260351 0.0140103 0 0 0 8.47856e-16 -1.67375e-16 -0.240193 -8.03219e-22 1.58563e-22 -0.000290822 -5.03191e-16 -2.54897e-15 -8.95338e-29 0.001415 
2604 1 -0.0264828 -0.0239558 0.0137348 0 0 0 1.76644e-15 -7.691e-17 -0.240193 1.28461e-17 -5.59314e-19 -0.000290822 -3.42924e-15 -7.87617e-14 -2.14751e-28 0.001415 
7959 1 -0.0480224 -0.0227988 0.0144168 0 0 0 -1.34108e-15 8.36465e-16 -0.240193 1.27047e-21 -7.92429e-22 -0.000290822 2.46525e-14 3.95246e-14 2.38027e-27 0.001415 
8818 1 0.00968245 -0.0211851 0.0139595 0 0 0 4.40235e-17 1.35402e-15 -0.240193 -3.93888e-20 -1.21148e-18 -0.000290822 1.03984e-14 -3.38084e-16 -9.93015e-29 0.001415 
9789 1 -0.0179785 -0.0208985 0.0140755 0 0 0 -9.89792e-16 -1.23077e-15 -0.240193 7.55486e-19 9.39423e-19 -0.000290822 -2.38667e-14 1.91937e-14 -6.3334e-29 0.001415 
4471 1 -0.0206599 -0.0174716 0.0143319 0 0 0 -3.29023e-16 1.12469e-15 -0.240193 3.80094e-19 -1.29927e-18 -0.000290822 2.55681e-15 7.47981e-16 -2.12606e-28 0.001415 
1404 1 0.0175339 -0.0189217 0.0142118 0 0 0 -1.17218e-15 -3.42924e-16 -0.240193 1.2832e-18 3.75402e-19 -0.000290822 -1.68808e-15 5.7702e-15 5.67817e-28 0.001415 
8586 1 -0.0404855 -0.0156313 0.0148217 0 0 0 -5.87299e-17 7.75607e-16 -0.240193 -3.6901e-19 4.87327e-18 -0.000290822 -3.62437e-14 -2.74441e-15 -2.02883e-28 0.001415 
4388 1 -0.00265555 -0.0161876 0.0134481 0 0 0 5.55991e-16 -2.71039e-16 -0.240193 -5.11412e-19 2.49307e-19 -0.000290822 2.16792e-15 4.44711e-15 5.94236e-30 0.001415 
2097 1 -0.0180782 -0.0116116 0.0137489 0 0 0 1.47477e-15 2.67581e-16 -0.240193 -1.39713e-21 -2.53494e-22 -0.000290822 8.10397e-15 -4.46649e-14 -1.64092e-27 0.001415 
5435 1 0.0233242 -0.0111485 0.0146854 0 0 0 5.35164e-16 -1.01689e-15 -0.240193 -4.90239e-19 9.31528e-19 -0.000290822 -2.24621e-15 -1.18212e-15 -3.13368e-28 0.001415 
9887 1 -0.0551901 -0.00373509 0.0130448 0 0 0 3.84338e-16 -4.80032e-16 -0.240193 -5.3321e-19 6.6597e-19 -0.000290822 6.46562e-15 5.1767e-15 1.74908e-29 0.001415 
4853 1 -0.0586257 -7.65915e-05 0.0139425 0 0 0 7.48906e-16 1.2288e-15 -0.240193 -4.59793e-19 -7.54423e-19 -0.000290822 1.00862e-14 -6.14714e-15 -1.48073e-27 0.001415 
9743 1 -0.0492029 -0.00049722 0.0144477 0 0 0 6.54305e-16 7.45307e-16 -0.240193 -3.00065e-19 -3.41799e-19 -0.000290822 2.28522e-14 -2.00619e-14 1.44887e-27 0.001415 
3403 1 0.0399954 0.00144601 0.012964 0 0 0 -1.44334e-15 6.83019e-17 -0.240193 -9.21103e-18 4.35886e-19 -0.000290822 2.35248e-15 4.9712e-14 -4.01474e-28 0.001415 
3526 1 0.0549212 0.000551996 0.0133269 0 0 0 -1.47334e-15 -6.70075e-16 -0.240193 1.39578e-21 6.34798e-22 -0.000290822 -2.19836e-14 4.8337e-14 -1.36601e-27 0.001415 
3843 1 -0.0432547 0.00201405 0.0135495 0 0 0 1.21464e-15 8.27613e-16 -0.240193 -1.1507e-21 -7.84043e-22 -0.000290822 1.69876e-14 -2.49318e-14 2.01324e-27 0.001415 
2455 1 0.0236249 0.00314802 0.0148612 0 0 0 1.98214e-16 -1.24652e-16 -0.240193 1.52349e-18 -9.58082e-19 -0.000290822 4.99068e-15 7.9359e-15 -1.93382e-28 0.001415 
6238 1 0.0476834 0.00358837 0.013085 0 0 0 1.85151e-15 -1.19129e-15 -0.240193 1.04647e-17 -6.73315e-18 -0.000290822 -4.47053e-14 -6.94812e-14 1.21161e-27 0.001415 
7479 1 0.00708078 0.00479504 0.0129918 0 0 0 -7.36686e-16 7.47045e-16 -0.240193 3.90187e-19 -3.95673e-19 -0.000290822 3.13952e-15 3.09599e-15 5.46703e-28 0.001415 
6443 1 -0.0474965 0.00682656 0.0147443 0 0 0 -8.32847e-16 1.0146e-15 -0.240193 8.42667e-19 -1.02657e-18 -0.000290822 1.62392e-14 1.33301e-14 -1.47215e-28 0.001415 
7898 1 0.0197791 0.00861083 0.0141477 0 0 0 2.84909e-16 1.35805e-15 -0.240193 -2.21854e-19 -1.05749e-18 -0.000290822 2.32008e-14 -4.86736e-15 -3.76511e-28 0.001415 
4366 1 0.0434972 0.010956 0.0131628 0 0 0 -8.14666e-16 7.34888e-16 -0.240193 6.79452e-19 -6.12915e-19 -0.000290822 4.06339e-15 4.50451e-15 -3.34833e-28 0.001415 
1176 1 0.023371 0.01534 0.0141492 0 0 0 1.79912e-17 1.52447e-15 -0.240193 -1.7044e-23 -1.44421e-21 -0.000290822 2.40544e-14 -2.83881e-16 -5.2059e-30 0.001415 
4344 1 0.0486622 0.0138541 0.0134558 0 0 0 -1.30626e-15 -4.59126e-16 -0.240193 7.08587e-19 2.49054e-19 -0.000290822 -4.40452e-15 1.25313e-14 1.03273e-27 0.001415 
5822 1 0.0700663 0.01371 0.0146353 0 0 0 1.10309e-15 -1.06025e-15 -0.240193 -1.04501e-21 1.00443e-21 -0.000290822 -2.64097e-14 -2.74767e-14 9.19636e-28 0.001415 
9808 1 -0.0411335 0.0170646 0.0146805 0 0 0 1.0764e-15 -8.87753e-16 -0.240193 -1.01973e-21 8.41016e-22 -0.000290822 -3.42608e-14 -4.15411e-14 2.99055e-27 0.001415 
5629 1 -0.00809486 0.0186934 0.0133291 0 0 0 1.65021e-15 2.88681e-17 -0.240193 1.14876e-17 2.00959e-19 -0.000290822 1.45259e-15 -8.30352e-14 3.38508e-28 0.001415 
9993 1 -0.0262716 0.020692 0.0134245 0 0 0 -8.13646e-16 -7.77273e-16 -0.240193 9.32452e-19 8.90768e-19 -0.000290822 -1.28571e-14 1.34587e-14 8.2721e-28 0.001415 
1278 1 -0.00656497 0.0230388 0.0145314 0 0 0 -8.44415e-16 -3.12796e-16 -0.240193 1.08426e-18 4.01643e-19 -0.000290822 6.11581e-15 -1.65101e-14 6.20428e-29 0.001415 
3553 1 0.038325 0.0241144 0.0134267 0 0 0 -1.95848e-16 1.14573e-15 -0.240193 1.36216e-19 -7.96875e-19 -0.000290822 1.65906e-14 2.83595e-15 5.51356e-28 0.001415 
2811 1 0.0616855 0.0236687 0.0130458 0 0 0 2.45727e-16 1.2468e-15 -0.240193 -2.19512e-19 -1.11379e-18 -0.000290822 2.45854e-15 -4.84545e-16 -3.13437e-28 0.001415 
9956 1 0.047731 0.0274693 0.0132413 0 0 0 3.25815e-16 1.80951e-15 -0.240193 2.266e-18 1.25849e-17 -0.000290822 4.35028e-14 -7.833e-15 -3.57458e-29 0.001415 
6007 1 0.0347873 0.0296881 0.0130112 0 0 0 3.83132e-16 4.2929e-16 -0.240193 -3.62962e-22 -4.0669e-22 -0.000290822 -2.63599e-15 2.35257e-15 1.33568e-29 0.001415 
8774 1 0.0137081 0.0323084 0.0136848 0 0 0 -2.42251e-16 4.07699e-16 -0.240193 2.08801e-19 -3.51405e-19 -0.000290822 -5.19923e-15 -3.08933e-15 -4.03713e-29 0.001415 
6214 1 -0.0224995 0.0352466 0.0141011 0 0 0 -2.83015e-16 -1.3159e-15 -0.240193 1.61258e-19 7.49778e-19 -0.000290822 -2.87897e-14 6.19193e-15 1.11674e-27 0.001415 
7873 1 -0.0162209 0.0354611 0.0133345 0 0 0 5.32607e-16 6.29991e-16 -0.240193 -4.3697e-19 -5.16867e-19 -0.000290822 -7.04425e-15 5.95535e-15 5.76133e-28 0.001415 
6847 1 -0.0500743 0.0395872 0.0134912 0 0 0 -1.73172e-15 7.46927e-16 -0.240193 -1.19786e-17 5.16665e-18 -0.000290822 4.14174e-14 9.60242e-14 -3.41581e-27 0.001415 