ITEM: TIMESTEP
170000
ITEM: NUMBER OF ATOMS
10248
ITEM: BOX BOUNDS ff ff ff
-0.2 0.2
-0.2 0.2
-0.01 0.5
ITEM: ATOMS id type x y z ix iy iz vx vy vz fx fy fz omegax omegay omegaz radius 
168 1 0.0236767 -0.0377493 0.00141871 0 0 0 0.0326157 0.435339 0.00973122 -4.32934e-08 -5.77861e-07 -0.000291062 -307.749 23.0566 2.9278e-12 0.001415 
5124 1 -0.00943529 -0.0647942 0.00226903 0 0 0 -1.07553e-17 -3.78584e-18 -0.233331 1.00464e-23 3.53629e-24 -0.000290832 2.43532e-16 -6.9186e-16 1.49148e-32 0.001415 
9891 1 -0.0536741 -0.00562861 0.0021535 0 0 0 7.12607e-18 -8.90035e-18 -0.233331 -6.65633e-24 8.31365e-24 -0.000290832 6.62916e-16 5.30764e-16 -2.89615e-31 0.001415 
8778 1 0.0127785 0.033873 0.00267781 0 0 0 -4.29724e-18 7.23209e-18 -0.233331 4.01397e-24 -6.75536e-24 -0.000290832 -4.4391e-16 -2.63767e-16 3.6861e-31 0.001415 
5123 1 -0.00890863 -0.0646088 0.00504341 0 0 0 9.81898e-18 3.45625e-18 -0.233331 -9.17173e-24 -3.22842e-24 -0.000290832 2.42083e-16 -6.87742e-16 1.77189e-32 0.001415 
167 1 0.0236329 -0.038334 0.00419877 0 0 0 0.0225725 0.301287 0.0169366 -2.4109e-08 -3.21796e-07 -0.000291068 400.679 -30.0189 1.61881e-11 0.001415 
5439 1 0.0255064 -0.015295 0.00454638 0 0 0 6.69724e-19 -1.27257e-18 -0.233331 -6.25577e-25 1.18869e-24 -0.000290832 -5.23876e-18 -2.75702e-18 2.22084e-33 0.001415 
9890 1 -0.0540531 -0.00515523 0.00491777 0 0 0 -6.21409e-18 7.7613e-18 -0.233331 5.80447e-24 -7.24968e-24 -0.000290832 6.56909e-16 5.25955e-16 -2.89935e-31 0.001415 
4096 1 0.0493328 0.0413049 0.00409839 0 0 0 1.51008e-17 -5.1346e-18 -0.233331 1.19929e-19 -4.07786e-20 -0.000290832 -6.87724e-16 -2.02259e-15 4.49635e-30 0.001415 
4641 1 -0.00200478 0.0474767 0.00477558 0 0 0 -2.10635e-18 1.13418e-18 -0.233331 1.9675e-24 -1.05941e-24 -0.000290832 5.34829e-18 9.93264e-18 -2.46519e-33 0.001415 
166 1 0.0235736 -0.0391252 0.00692972 0 0 0 -0.0114053 -0.152233 -0.0588972 9.1158e-09 1.21674e-07 -0.000291002 -76.3169 5.71768 -1.31806e-11 0.001415 
8779 1 0.0136066 -0.0379801 0.00566717 0 0 0 1.14877e-19 5.24061e-20 -0.233331 -1.07304e-25 -4.89516e-26 -0.000290832 -4.07791e-19 8.93899e-19 -5.00732e-34 0.001415 
6552 1 -0.00600865 -0.0297033 0.00628393 0 0 0 7.94127e-19 -1.28709e-19 -0.233331 -7.4178e-25 1.20225e-25 -0.000290832 -4.68449e-19 -2.89029e-18 -2.04083e-34 0.001415 
1407 1 0.0135434 -0.0200891 0.00697526 0 0 0 -6.80071e-19 -1.98956e-19 -0.233331 6.35242e-25 1.85841e-25 -0.000290832 -4.8003e-19 1.64084e-18 -6.54829e-34 0.001415 
4516 1 0.00201022 -0.00437069 0.00570386 0 0 0 -1.07227e-18 1.28007e-18 -0.233331 1.00159e-24 -1.19569e-24 -0.000290832 4.69425e-18 3.93219e-18 -1.24807e-32 0.001415 
5818 1 0.0744051 0.00953964 0.0052133 0 0 0 2.36854e-19 -2.27656e-19 -0.233331 -2.21241e-25 2.12649e-25 -0.000290832 -2.53169e-19 -2.63397e-19 -1.71773e-34 0.001415 
6447 1 -0.0515136 0.0117203 0.00552624 0 0 0 -1.1017e-18 1.34213e-18 -0.233331 1.02908e-24 -1.25366e-24 -0.000290832 4.42214e-18 3.62996e-18 -1.38184e-32 0.001415 
4347 1 0.0446345 0.0124385 0.00628302 0 0 0 -7.28257e-19 -2.55968e-19 -0.233331 6.80252e-25 2.39095e-25 -0.000290832 -2.68488e-19 7.63877e-19 -3.25067e-35 0.001415 
9996 1 -0.0293411 0.0177597 0.00623767 0 0 0 -1.7525e-18 -1.67416e-18 -0.233331 1.63698e-24 1.5638e-24 -0.000290832 -7.58275e-18 7.93759e-18 1.07759e-32 0.001415 
1281 1 -0.00910888 0.0220965 0.00665226 0 0 0 -7.20014e-19 -2.66715e-19 -0.233331 6.72552e-25 2.49133e-25 -0.000290832 -8.97929e-19 2.42402e-18 -9.39063e-34 0.001415 
4221 1 0.00751144 0.0235905 0.0055961 0 0 0 3.08427e-20 -2.27947e-19 -0.233331 -2.88096e-26 2.12921e-25 -0.000290832 4.14607e-19 5.60989e-20 1.08543e-34 0.001415 
3550 1 0.0375782 0.0284832 0.00635116 0 0 0 -1.07709e-18 6.30107e-18 -0.233331 1.00609e-24 -5.88571e-24 -0.000290832 3.71242e-17 6.34592e-18 -1.16592e-32 0.001415 
2814 1 0.0624335 0.0274639 0.00565403 0 0 0 1.4241e-19 7.22577e-19 -0.233331 -1.33023e-25 -6.74946e-25 -0.000290832 1.17352e-18 -2.31285e-19 1.95756e-33 0.001415 
8777 1 0.0130109 0.0334818 0.005471 0 0 0 4.09746e-18 -6.89587e-18 -0.233331 -3.82736e-24 6.44131e-24 -0.000290832 -4.43137e-16 -2.63308e-16 3.68489e-31 0.001415 
484 1 0.0153265 0.0412785 0.00674167 0 0 0 2.85369e-18 -2.41879e-18 -0.233331 -2.66558e-24 2.25934e-24 -0.000290832 -1.26404e-17 -1.49132e-17 1.11455e-32 0.001415 
4097 1 0.0483957 0.0416236 0.00674967 0 0 0 -1.36413e-17 4.63834e-18 -0.233331 -1.19931e-19 4.07791e-20 -0.000290832 -6.89244e-16 -2.02706e-15 4.49489e-30 0.001415 
7350 1 0.0388042 0.0484249 0.00698274 0 0 0 -4.44014e-21 -7.50867e-20 -0.233331 4.14745e-27 7.01372e-26 -0.000290832 2.59538e-19 -1.53474e-20 3.67235e-36 0.001415 
5122 1 -0.00838197 -0.0644234 0.00781778 0 0 0 -9.06298e-20 -3.19014e-20 -0.233331 -1.72782e-20 -6.08187e-21 -0.000290832 7.6275e-17 -2.16692e-16 -8.03544e-30 0.001415 
9219 1 -0.0350531 -0.0474779 0.0085414 0 0 0 0 0 -0.233331 0 0 -0.000290832 0 0 0 0.001415 
8295 1 0.0424827 -0.0477148 0.00880912 0 0 0 0 0 -0.233331 0 0 -0.000290832 0 0 0 0.001415 
8780 1 0.0123897 -0.0385353 0.00816112 0 0 0 3.36311e-17 1.53423e-17 -0.233331 2.81783e-19 1.28548e-19 -0.000290832 -2.78741e-15 6.11014e-15 -8.26754e-30 0.001415 
8589 1 -0.0402517 -0.0187189 0.00708223 0 0 0 5.78169e-20 -7.63549e-19 -0.233331 -5.40057e-26 7.13218e-25 -0.000290832 3.63252e-18 2.75059e-19 -1.53618e-32 0.001415 
5438 1 0.0249608 -0.0142584 0.00712256 0 0 0 2.09427e-16 -3.97943e-16 -0.233331 4.25762e-18 -8.09011e-18 -0.000290832 -8.06622e-15 -4.24505e-15 -4.65318e-29 0.001415 
2100 1 -0.012979 -0.0106864 0.00718988 0 0 0 4.74655e-16 8.61211e-17 -0.233331 9.73553e-18 1.76641e-18 -0.000290832 -9.60865e-16 5.29579e-15 1.34274e-28 0.001415 
9889 1 -0.0544321 -0.00468185 0.00768203 0 0 0 1.04905e-17 -1.31025e-17 -0.233331 1.0268e-18 -1.28246e-18 -0.000290832 -5.98703e-16 -4.79352e-16 -8.612e-32 0.001415 
4517 1 0.00302288 -0.0055796 0.00805374 0 0 0 1.07227e-18 -1.28007e-18 -0.233331 -1.00159e-24 1.19569e-24 -0.000290832 4.69425e-18 3.93219e-18 -1.24807e-32 0.001415 
7477 1 0.00556963 0.00632744 0.00792264 0 0 0 0 0 -0.233331 0 0 -0.000290832 0 0 0 0.001415 
6446 1 -0.0505093 0.0104969 0.0078722 0 0 0 -3.72701e-18 4.54037e-18 -0.233331 -4.13821e-20 5.04132e-20 -0.000290832 1.38581e-16 1.13756e-16 2.13764e-30 0.001415 
5819 1 0.0733204 0.0105822 0.00761024 0 0 0 -1.68782e-19 1.62227e-19 -0.233331 1.57656e-25 -1.51534e-25 -0.000290832 1.21642e-17 1.26557e-17 4.13309e-31 0.001415 
4368 1 0.0417993 0.0124877 0.00815105 0 0 0 0 0 -0.233331 0 0 -0.000290832 0 0 0 0.001415 
4346 1 0.0459771 0.0129104 0.00872919 0 0 0 -1.25299e-17 -4.404e-18 -0.233331 -1.15096e-19 -4.04539e-20 -0.000290832 -4.77018e-16 1.35717e-15 -1.85541e-30 0.001415 
9995 1 -0.0283179 0.0187371 0.00868852 0 0 0 1.7525e-18 1.67416e-18 -0.233331 -1.63698e-24 -1.5638e-24 -0.000290832 -7.58275e-18 7.93759e-18 1.07759e-32 0.001415 
4220 1 0.00732219 0.0249892 0.00804901 0 0 0 1.98666e-18 -1.46827e-17 -0.233331 1.86327e-20 -1.37707e-19 -0.000290832 -1.91173e-15 -2.58669e-16 8.21965e-31 0.001415 
2813 1 0.0621842 0.0261988 0.00817321 0 0 0 1.84333e-18 9.35289e-18 -0.233331 1.98562e-20 1.00749e-19 -0.000290832 1.5696e-15 -3.09346e-16 1.53805e-30 0.001415 
3551 1 0.0378271 0.027027 0.00876492 0 0 0 1.07709e-18 -6.30107e-18 -0.233331 -1.00609e-24 5.88571e-24 -0.000290832 3.71242e-17 6.34592e-18 -1.16592e-32 0.001415 
8776 1 0.0132433 0.0330907 0.00826418 0 0 0 -1.02099e-18 1.71829e-18 -0.233331 -1.28209e-20 2.15772e-20 -0.000290832 4.3817e-16 2.60357e-16 9.69588e-31 0.001415 
3969 1 -0.0266131 0.0377733 0.00766949 0 0 0 -1.95144e-17 6.10501e-17 -0.233331 -3.91483e-19 1.22474e-18 -0.000290832 -6.51778e-15 -2.08338e-15 9.89374e-30 0.001415 
7875 1 -0.0151895 0.0366812 0.00807042 0 0 0 5.10961e-18 6.04387e-18 -0.233331 4.64808e-20 5.49795e-20 -0.000290832 9.22976e-16 -7.80303e-16 1.81317e-30 0.001415 
4640 1 -0.000842548 0.0468509 0.00727887 0 0 0 -5.52362e-16 2.97423e-16 -0.233331 -1.07167e-17 5.7705e-18 -0.000290832 -2.20294e-16 -4.09121e-16 1.37503e-29 0.001415 
5121 1 -0.0078553 -0.064238 0.0105922 0 0 0 -2.81077e-17 -9.89381e-18 -0.233331 -5.04345e-19 -1.77528e-19 -0.000290832 -3.50445e-16 9.9559e-16 1.5731e-28 0.001415 
6406 1 -0.013834 -0.0547628 0.00946951 0 0 0 1.88046e-17 -5.48226e-18 -0.233331 1.51273e-19 -4.41019e-20 -0.000290832 -5.54816e-16 -1.90306e-15 5.82325e-30 0.001415 
4747 1 -0.048396 -0.0516837 0.0102583 0 0 0 -5.62764e-17 8.22826e-18 -0.233331 -4.60286e-19 6.72991e-20 -0.000290832 1.37544e-17 9.40722e-17 -1.56883e-31 0.001415 
8904 1 0.00698378 -0.051284 0.00977767 0 0 0 0 0 -0.233331 0 0 -0.000290832 0 0 0 0.001415 
9218 1 -0.0344149 -0.0491301 0.0107486 0 0 0 -1.43585e-17 3.71665e-17 -0.233331 -1.97119e-19 5.10237e-19 -0.000290832 -7.68834e-15 -2.97023e-15 -9.23113e-29 0.001415 
8781 1 0.0111727 -0.0390904 0.0106551 0 0 0 -1.34224e-17 -6.1232e-18 -0.233331 4.09374e-19 1.86754e-19 -0.000290832 -4.44748e-15 9.7491e-15 -3.44749e-29 0.001415 
165 1 0.0235423 -0.0395431 0.00973729 0 0 0 -0.00268466 -0.0358336 -0.0142165 1.49673e-09 1.99776e-08 -0.000291042 -10.1225 0.758378 -1.93321e-11 0.001415 
6551 1 -0.00658842 -0.0296093 0.00905231 0 0 0 4.89994e-18 -7.94165e-19 -0.233331 4.55778e-20 -7.38709e-21 -0.000290832 -1.1236e-16 -6.93255e-16 2.60925e-31 0.001415 
9787 1 -0.0202299 -0.023698 0.00986746 0 0 0 -8.28147e-18 -1.02977e-17 -0.233331 -7.76317e-20 -9.65326e-20 -0.000290832 -6.21386e-16 4.9972e-16 -2.07227e-29 0.001415 
1406 1 0.0148736 -0.0197 0.00944268 0 0 0 6.80071e-19 1.98956e-19 -0.233331 -6.35242e-25 -1.85841e-25 -0.000290832 -4.8003e-19 1.64084e-18 -6.54829e-34 0.001415 
8588 1 -0.0403296 -0.0176897 0.0097173 0 0 0 8.07566e-18 -1.0665e-16 -0.233331 1.09154e-19 -1.44153e-18 -0.000290832 1.62476e-14 1.23029e-15 1.30574e-28 0.001415 
4389 1 -0.00210167 -0.0164576 0.0108518 0 0 0 1.87799e-17 -9.155e-18 -0.233331 3.97554e-19 -1.93803e-19 -0.000290832 7.47262e-17 1.53288e-16 -4.30945e-29 0.001415 
8820 1 0.00980992 -0.0172644 0.0100451 0 0 0 0 0 -0.233331 0 0 -0.000290832 0 0 0 0.001415 
3529 1 0.0670132 -0.0166749 0.0103451 0 0 0 0 0 -0.233331 0 0 -0.000290832 0 0 0 0.001415 
4473 1 -0.0215554 -0.0144106 0.00982176 0 0 0 0 0 -0.233331 0 0 -0.000290832 0 0 0 0.001415 
5437 1 0.0244153 -0.0132218 0.00969873 0 0 0 -1.86089e-16 3.53597e-16 -0.233331 -3.86039e-18 7.33531e-18 -0.000290832 -2.77348e-15 -1.45961e-15 2.56216e-29 0.001415 
2099 1 -0.0146787 -0.0109948 0.00943145 0 0 0 -4.51453e-16 -8.19112e-17 -0.233331 -9.18596e-18 -1.66669e-18 -0.000290832 -5.90761e-16 3.25597e-15 8.2533e-29 0.001415 
4518 1 0.00403554 -0.00678852 0.0104036 0 0 0 -3.83144e-17 4.57397e-17 -0.233331 -4.93178e-19 5.88755e-19 -0.000290832 -1.47055e-14 -1.23182e-14 -4.20691e-28 0.001415 
9888 1 -0.0548111 -0.00420847 0.0104463 0 0 0 5.45463e-18 -6.81275e-18 -0.233331 -7.02236e-19 8.77082e-19 -0.000290832 -3.18878e-16 -2.5531e-16 5.36735e-29 0.001415 
3528 1 0.0516347 -0.000942708 0.00913372 0 0 0 -2.09594e-17 -9.53234e-18 -0.233331 -1.67677e-19 -7.62596e-20 -0.000290832 -1.11107e-15 2.44298e-15 -8.62319e-30 0.001415 
2457 1 0.0227749 0.00368251 0.0094567 0 0 0 0 0 -0.233331 0 0 -0.000290832 0 0 0 0.001415 
1470 1 -0.0541433 0.00552442 0.0106938 0 0 0 4.5558e-17 4.39022e-17 -0.233331 5.91177e-19 5.6969e-19 -0.000290832 -1.56102e-14 1.6199e-14 -1.44305e-28 0.001415 
7478 1 0.0063252 0.00556124 0.0105401 0 0 0 -1.16671e-17 1.18312e-17 -0.233331 -3.94018e-19 3.99559e-19 -0.000290832 -5.10776e-16 -5.03693e-16 -1.01666e-28 0.001415 
5545 1 -0.0302182 0.00727945 0.0108342 0 0 0 0 0 -0.233331 0 0 -0.000290832 0 0 0 0.001415 
6445 1 -0.0495051 0.00927345 0.0102182 0 0 0 -6.35142e-19 7.73751e-19 -0.233331 -1.67709e-20 2.04308e-20 -0.000290832 9.50287e-16 7.80053e-16 5.97642e-30 0.001415 
4431 1 -0.0620527 0.012605 0.0102127 0 0 0 -6.08889e-17 1.30072e-17 -0.233331 -7.61778e-19 1.62733e-19 -0.000290832 -3.30475e-15 -1.547e-14 1.084e-29 0.001415 
4367 1 0.0426483 0.0117219 0.0107398 0 0 0 -3.67601e-17 3.31603e-17 -0.233331 -6.98186e-19 6.29814e-19 -0.000290832 -3.97699e-15 -4.40872e-15 -1.76834e-28 0.001415 
5820 1 0.0722357 0.0116248 0.0100072 0 0 0 1.04884e-17 -1.00811e-17 -0.233331 8.46926e-20 -8.14037e-20 -0.000290832 -1.22391e-15 -1.27336e-15 -1.3133e-29 0.001415 
1280 1 -0.00826091 0.0224106 0.00933389 0 0 0 7.20014e-19 2.66715e-19 -0.233331 -6.72552e-25 -2.49133e-25 -0.000290832 -8.97929e-19 2.42402e-18 -9.39063e-34 0.001415 
2812 1 0.0619348 0.0249338 0.0106924 0 0 0 1.00942e-17 5.1217e-17 -0.233331 2.04817e-19 1.03923e-18 -0.000290832 -6.39406e-15 1.26018e-15 -1.8463e-29 0.001415 
4219 1 0.00713294 0.0263879 0.0105019 0 0 0 6.56237e-18 -4.85001e-17 -0.233331 1.25369e-19 -9.26557e-19 -0.000290832 1.1067e-14 1.49744e-15 1.86444e-28 0.001415 
6216 1 -0.023401 0.0310553 0.0105714 0 0 0 -3.28241e-18 -1.52618e-17 -0.233331 -2.84784e-20 -1.32412e-19 -0.000290832 -1.24807e-15 2.68427e-16 3.59746e-30 0.001415 
3968 1 -0.0261983 0.0364757 0.01015 0 0 0 1.95144e-17 -6.10501e-17 -0.233331 3.91483e-19 -1.22474e-18 -0.000290832 -6.51778e-15 -2.08338e-15 9.89374e-30 0.001415 
7874 1 -0.0157052 0.0360712 0.0107853 0 0 0 5.47218e-18 6.47273e-18 -0.233331 3.07607e-19 3.63851e-19 -0.000290832 7.90956e-16 -6.6869e-16 -1.18054e-28 0.001415 
9745 1 -0.0323504 0.0411674 0.00945633 0 0 0 0 0 -0.233331 0 0 -0.000290832 0 0 0 0.001415 
485 1 0.0142511 0.04219 0.00919557 0 0 0 -2.85369e-18 2.41879e-18 -0.233331 2.66558e-24 -2.25934e-24 -0.000290832 -1.26404e-17 -1.49132e-17 1.11455e-32 0.001415 
4098 1 0.0474587 0.0419422 0.00940095 0 0 0 3.01002e-18 -1.02347e-18 -0.233331 4.23915e-20 -1.4414e-20 -0.000290832 -6.27464e-17 -1.84536e-16 -2.09168e-31 0.001415 
4639 1 0.000319678 0.0462251 0.00978217 0 0 0 5.18805e-16 -2.79354e-16 -0.233331 1.00335e-17 -5.40262e-18 -0.000290832 1.75753e-15 3.26401e-15 7.07642e-29 0.001415 
7349 1 0.0388392 0.0490157 0.00975017 0 0 0 -1.91097e-18 -3.23162e-17 -0.233331 -3.20307e-20 -5.41669e-19 -0.000290832 2.6998e-15 -1.59649e-16 -2.01691e-29 0.001415 
3318 1 0.0108764 -0.0748018 0.0118393 0 0 0 0 0 -0.233331 0 0 -0.000290832 0 0 0 0.001415 
6407 1 -0.0157638 -0.0542001 0.0114616 0 0 0 -1.88046e-17 5.48226e-18 -0.233331 -1.51273e-19 4.41019e-20 -0.000290832 -5.54816e-16 -1.90306e-15 5.82325e-30 0.001415 
4748 1 -0.0463698 -0.05198 0.0122117 0 0 0 1.03404e-18 -1.51188e-19 -0.233331 -4.15437e-19 6.07417e-20 -0.000290832 -4.03512e-15 -2.75978e-14 9.02649e-29 0.001415 
8903 1 0.00719176 -0.0530399 0.0119873 0 0 0 -6.41577e-18 5.41649e-17 -0.233331 -1.07123e-19 9.0438e-19 -0.000290832 -1.54334e-14 -1.82807e-15 1.15005e-28 0.001415 
8421 1 -0.0125515 -0.050364 0.0116648 0 0 0 6.06551e-18 -1.61961e-17 -0.233331 2.07942e-19 -5.55246e-19 -0.000290832 2.39685e-15 8.97629e-16 -3.85792e-28 0.001415 
5040 1 0.0412118 -0.051077 0.0112419 0 0 0 0 0 -0.233331 0 0 -0.000290832 0 0 0 0.001415 
8294 1 0.0417911 -0.0460756 0.0110099 0 0 0 0 0 -0.233331 0 0 -0.000290832 0 0 0 0.001415 
164 1 0.0235051 -0.0400396 0.0125303 0 0 0 -0.00275487 -0.0367708 0.00698298 1.52993e-09 2.04208e-08 -0.000291053 8.21632 -0.615568 -1.822e-11 0.001415 
7141 1 -0.0440609 -0.0300013 0.0122024 0 0 0 0 0 -0.233331 0 0 -0.000290832 0 0 0 0.001415 
6550 1 -0.00716818 -0.0295154 0.0118207 0 0 0 -5.69407e-18 9.22874e-19 -0.233331 -4.5577e-20 7.38697e-21 -0.000290832 -1.11892e-16 -6.90364e-16 2.61129e-31 0.001415 
9788 1 -0.0191042 -0.0222982 0.0120543 0 0 0 -2.71915e-17 -3.38118e-17 -0.233331 -6.92457e-19 -8.61049e-19 -0.000290832 1.28405e-14 -1.03263e-14 6.02908e-28 0.001415 
1405 1 0.0162037 -0.0193109 0.0119101 0 0 0 -7.84688e-17 -2.29562e-17 -0.233331 -1.3202e-18 -3.86226e-19 -0.000290832 4.40577e-15 -1.50598e-14 -3.63502e-28 0.001415 
8819 1 0.00974619 -0.0192248 0.0120852 0 0 0 2.7897e-18 8.58025e-17 -0.233331 4.03321e-20 1.24049e-18 -0.000290832 -1.76997e-14 5.75473e-16 -1.24797e-28 0.001415 
8587 1 -0.0404076 -0.0166605 0.0123524 0 0 0 5.59657e-17 -7.39103e-16 -0.233331 3.09981e-19 -4.09372e-18 -0.000290832 -4.01546e-15 -3.04055e-16 -4.66726e-29 0.001415 
4472 1 -0.0211077 -0.0159411 0.0121597 0 0 0 -2.93276e-17 1.0025e-16 -0.233331 -3.90916e-19 1.33626e-18 -0.000290832 -2.34221e-14 -6.852e-15 -3.16004e-28 0.001415 
5436 1 0.0238697 -0.0121851 0.0122749 0 0 0 4.39309e-18 -8.34752e-18 -0.233331 1.00052e-19 -1.90114e-19 -0.000290832 1.05497e-14 5.55203e-15 1.50955e-28 0.001415 
2098 1 -0.0163785 -0.0113032 0.011673 0 0 0 -2.32024e-17 -4.20983e-18 -0.233331 -5.49571e-19 -9.97137e-20 -0.000290832 3.70103e-16 -2.03982e-15 -5.17414e-29 0.001415 
4519 1 0.0050482 -0.00799743 0.0127535 0 0 0 -4.91063e-16 5.8623e-16 -0.233331 -3.32959e-18 3.97486e-18 -0.000290832 6.92632e-16 5.80192e-16 9.53727e-28 0.001415 
3527 1 0.053278 -0.000195356 0.0113132 0 0 0 2.09594e-17 9.53234e-18 -0.233331 1.67677e-19 7.62596e-20 -0.000290832 -1.11107e-15 2.44298e-15 -8.62319e-30 0.001415 
4852 1 -0.0576017 0.00160357 0.0120742 0 0 0 2.83401e-17 4.65e-17 -0.233331 4.67631e-19 7.67283e-19 -0.000290832 -9.60798e-15 5.85571e-15 2.91065e-28 0.001415 
2456 1 0.0231999 0.00341526 0.0122418 0 0 0 -3.05505e-16 1.92124e-16 -0.233331 -1.85023e-18 1.16356e-18 -0.000290832 2.17576e-15 3.45978e-15 -1.19258e-28 0.001415 
6444 1 -0.0485008 0.00805 0.0125641 0 0 0 -4.24748e-17 5.17443e-17 -0.233331 -8.06178e-19 9.82114e-19 -0.000290832 -1.33929e-14 -1.09937e-14 -9.925e-28 0.001415 
7897 1 0.0202104 0.0106666 0.0124169 0 0 0 1.47203e-17 7.01658e-17 -0.233331 2.25893e-19 1.07674e-18 -0.000290832 -2.08572e-14 4.37568e-15 1.03058e-29 0.001415 
4430 1 -0.0607358 0.0123237 0.0127018 0 0 0 -7.30961e-16 1.5615e-16 -0.233331 -4.43738e-18 9.47923e-19 -0.000290832 7.49517e-16 3.50861e-15 -8.18091e-29 0.001415 
4345 1 0.0473197 0.0133822 0.0111754 0 0 0 -7.67694e-18 -2.69829e-18 -0.233331 -6.00912e-19 -2.11209e-19 -0.000290832 1.0319e-15 -2.93587e-15 -9.65981e-29 0.001415 
5821 1 0.071151 0.0126674 0.0124041 0 0 0 -1.05565e-17 1.01466e-17 -0.233331 -8.46925e-20 8.14036e-20 -0.000290832 -1.23632e-15 -1.28627e-15 -1.35465e-29 0.001415 
9994 1 -0.0272948 0.0197145 0.0111394 0 0 0 -5.70577e-17 -5.4507e-17 -0.233331 -9.59492e-19 -9.166e-19 -0.000290832 1.17969e-14 -1.23489e-14 1.33423e-28 0.001415 
1279 1 -0.00741294 0.0227247 0.0120155 0 0 0 -6.04436e-17 -2.23901e-17 -0.233331 -9.19123e-19 -3.4047e-19 -0.000290832 7.79308e-16 -2.10379e-15 -7.62889e-29 0.001415 
3552 1 0.038076 0.0255707 0.0111787 0 0 0 -6.51995e-18 3.81423e-17 -0.233331 -1.38838e-19 8.12213e-19 -0.000290832 -9.39827e-15 -1.60652e-15 1.92887e-28 0.001415 
9955 1 0.0480973 0.0295036 0.0114741 0 0 0 0 0 -0.233331 0 0 -0.000290832 0 0 0 0.001415 
6215 1 -0.0229502 0.0331509 0.0124191 0 0 0 -6.1634e-18 -2.86571e-17 -0.233331 -1.33745e-19 -6.21858e-19 -0.000290832 2.07473e-14 -4.4622e-15 -1.67425e-28 0.001415 
8775 1 0.0134757 0.0326995 0.0110574 0 0 0 -6.95036e-18 1.16972e-17 -0.233331 -1.59971e-19 2.69225e-19 -0.000290832 8.95424e-17 5.32052e-17 1.80004e-29 0.001415 
3967 1 -0.0257836 0.0351781 0.0126306 0 0 0 -2.63617e-16 8.24718e-16 -0.233331 -1.66142e-18 5.19771e-18 -0.000290832 7.25312e-15 2.31843e-15 -4.8953e-28 0.001415 
4099 1 0.0465216 0.0422608 0.0120522 0 0 0 7.71846e-18 -2.62445e-18 -0.233331 3.69869e-19 -1.25764e-19 -0.000290832 -1.32266e-16 -3.88994e-16 -7.28983e-29 0.001415 
9746 1 -0.0326219 0.0429159 0.011665 0 0 0 9.64188e-18 -6.20972e-17 -0.233331 1.55879e-19 -1.00392e-18 -0.000290832 1.6921e-14 2.62733e-15 -1.51589e-28 0.001415 
486 1 0.0131757 0.0431015 0.0116495 0 0 0 7.17811e-17 -6.08416e-17 -0.233331 1.04922e-18 -8.89316e-19 -0.000290832 1.52306e-14 1.79691e-14 -1.62031e-28 0.001415 
4638 1 0.00148191 0.0455993 0.0122855 0 0 0 -2.25373e-20 1.21353e-20 -0.233331 -1.03888e-19 5.5939e-20 -0.000290832 -2.03088e-15 -3.77168e-15 3.88186e-28 0.001415 
7348 1 0.0388741 0.0496065 0.0125176 0 0 0 -3.20259e-17 -5.41587e-16 -0.233331 -2.05541e-19 -3.47589e-18 -0.000290832 6.86516e-15 -4.0596e-16 6.16379e-30 0.001415 
8316 1 0.0241447 0.055508 0.0122171 0 0 0 0 0 -0.233331 0 0 -0.000290832 0 0 0 0.001415 
4831 1 0.0293284 0.0560787 0.0126864 0 0 0 8.25434e-16 -4.58852e-16 -0.233331 5.61884e-18 -3.12347e-18 -0.000290832 -1.37908e-14 -2.48084e-14 -9.95933e-28 0.001415 
6909 1 0.00964204 0.0590336 0.0127205 0 0 0 1.55853e-16 -9.39055e-17 -0.233331 1.83302e-18 -1.10444e-18 -0.000290832 2.46289e-14 4.0876e-14 -9.48616e-28 0.001415 
6048 1 -0.0014895 0.0671831 0.0110646 0 0 0 -6.62069e-17 -3.97852e-18 -0.233331 -1.19733e-18 -7.195e-20 -0.000290832 7.44206e-16 -1.23844e-14 -6.48454e-29 0.001415 
3317 1 0.00879117 -0.0741345 0.0136324 0 0 0 1.1933e-15 -3.81873e-16 -0.233331 2.67814e-18 -8.57044e-19 -0.000290832 -1.38194e-14 -4.31838e-14 -1.46716e-27 0.001415 
4537 1 0.0348065 -0.0668743 0.0136104 0 0 0 4.54968e-16 -8.86019e-16 -0.233331 7.84714e-19 -1.52818e-18 -0.000290832 9.30152e-15 4.7763e-15 -3.62855e-29 0.001415 
5120 1 -0.00732864 -0.0640527 0.0133665 0 0 0 -5.4568e-16 -1.92078e-16 -0.233331 -3.60816e-19 -1.27006e-19 -0.000290832 2.44967e-15 -6.95934e-15 2.13337e-28 0.001415 
8902 1 0.00739974 -0.0547957 0.014197 0 0 0 -1.72784e-16 1.45872e-15 -0.233331 -3.33913e-19 2.81904e-18 -0.000290832 2.07482e-14 2.4576e-15 -1.59026e-29 0.001415 
4749 1 -0.0443437 -0.0522762 0.0141651 0 0 0 -1.1249e-15 1.64473e-16 -0.233331 -1.32201e-18 1.93294e-19 -0.000290832 4.99482e-15 3.41616e-14 -1.20028e-28 0.001415 
6408 1 -0.0176936 -0.0536375 0.0134536 0 0 0 1.9812e-15 -5.77596e-16 -0.233331 2.59102e-17 -7.55382e-18 -0.000290832 -1.3092e-14 -4.49066e-14 -1.27149e-27 0.001415 
9217 1 -0.0337766 -0.0507822 0.0129559 0 0 0 -3.07264e-16 7.95345e-16 -0.233331 -1.79737e-18 4.65244e-18 -0.000290832 1.88626e-15 7.28715e-16 1.00339e-27 0.001415 
5039 1 0.0393096 -0.0515993 0.0132711 0 0 0 1.36986e-15 3.76137e-16 -0.233331 1.19525e-17 3.28192e-18 -0.000290832 7.0293e-15 -2.56002e-14 1.54899e-27 0.001415 
8420 1 -0.0130316 -0.0490822 0.0141417 0 0 0 4.73007e-16 -1.26302e-15 -0.233331 7.82888e-19 -2.09047e-18 -0.000290832 -1.27006e-14 -4.75643e-15 1.69962e-27 0.001415 
8293 1 0.0410995 -0.0444363 0.0132107 0 0 0 5.86251e-16 -1.38952e-15 -0.233331 3.34311e-18 -7.9238e-18 -0.000290832 -5.68813e-14 -2.39987e-14 2.57876e-28 0.001415 
8782 1 0.00995582 -0.0396456 0.013149 0 0 0 1.07904e-15 4.92251e-16 -0.233331 1.15332e-18 5.26137e-19 -0.000290832 1.31193e-14 -2.87582e-14 -1.08576e-27 0.001415 
1765 1 -0.00582286 -0.0341936 0.0139038 0 0 0 1.26622e-15 -3.96247e-16 -0.233331 3.05129e-18 -9.54866e-19 -0.000290832 -1.57316e-14 -5.02706e-14 4.64337e-28 0.001415 
7142 1 -0.0430179 -0.0310366 0.014621 0 0 0 -9.63465e-16 9.56334e-16 -0.233331 -1.78604e-18 1.77282e-18 -0.000290832 2.54841e-14 2.56741e-14 -1.69603e-28 0.001415 
6549 1 -0.00774795 -0.0294214 0.0145891 0 0 0 6.55869e-16 -1.06301e-16 -0.233331 1.1047e-18 -1.79047e-19 -0.000290832 8.84585e-16 5.45783e-15 9.19136e-29 0.001415 
2898 1 -0.0015393 -0.0260351 0.014176 0 0 0 8.44619e-16 -1.66736e-16 -0.233331 1.55289e-18 -3.06555e-19 -0.000290832 -4.96491e-16 -2.51503e-15 -8.26086e-29 0.001415 
1113 1 0.057839 -0.0250229 0.0130326 0 0 0 1.37173e-15 7.03757e-16 -0.233331 1.25091e-17 6.41774e-18 -0.000290832 9.26337e-15 -1.80557e-14 4.60745e-28 0.001415 
2604 1 -0.0264828 -0.0239558 0.0139006 0 0 0 1.44219e-15 -6.27924e-17 -0.233331 1.45275e-17 -6.32519e-19 -0.000290832 -2.3848e-15 -5.47734e-14 -1.37406e-28 0.001415 
7959 1 -0.0480224 -0.0227988 0.0145826 0 0 0 -1.33407e-15 8.32096e-16 -0.233331 -3.7679e-18 2.35014e-18 -0.000290832 2.40569e-14 3.85697e-14 2.33181e-27 0.001415 
8818 1 0.00968245 -0.0211851 0.0141252 0 0 0 4.47393e-17 1.37604e-15 -0.233331 7.36174e-20 2.26424e-18 -0.000290832 1.64245e-14 -5.34012e-16 -1.64682e-29 0.001415 
9789 1 -0.0179785 -0.0208985 0.0142412 0 0 0 -1.00287e-15 -1.24704e-15 -0.233331 -1.82236e-18 -2.26604e-18 -0.000290832 -2.88133e-14 2.31717e-14 -4.58818e-28 0.001415 
4471 1 -0.0206599 -0.0174716 0.0144976 0 0 0 -3.36597e-16 1.15058e-15 -0.233331 -3.14723e-19 1.07581e-18 -0.000290832 1.04616e-14 3.06048e-15 -1.62859e-29 0.001415 
1404 1 0.0175339 -0.0189217 0.0143775 0 0 0 -1.19765e-15 -3.50374e-16 -0.233331 -1.16715e-18 -3.41451e-19 -0.000290832 -3.39107e-15 1.15913e-14 8.30626e-28 0.001415 
3530 1 0.0663652 -0.0174708 0.0129824 0 0 0 7.91811e-16 9.72501e-16 -0.233331 2.11106e-18 2.59279e-18 -0.000290832 5.99906e-15 -4.88444e-15 -8.63667e-28 0.001415 
4388 1 -0.00265555 -0.0161876 0.0136139 0 0 0 5.63839e-16 -2.74865e-16 -0.233331 4.42769e-19 -2.15845e-19 -0.000290832 2.20731e-15 4.52792e-15 2.16404e-29 0.001415 
2097 1 -0.0180782 -0.0116116 0.0139146 0 0 0 1.46842e-15 2.6643e-16 -0.233331 3.17261e-18 5.75637e-19 -0.000290832 7.99269e-15 -4.40516e-14 -1.57433e-27 0.001415 
9887 1 -0.0551901 -0.00373509 0.0132106 0 0 0 3.92378e-16 -4.90074e-16 -0.233331 2.65571e-19 -3.31693e-19 -0.000290832 6.32684e-15 5.06559e-15 2.70332e-29 0.001415 
4853 1 -0.0586257 -7.65915e-05 0.0141082 0 0 0 7.56129e-16 1.24065e-15 -0.233331 1.40444e-18 2.30438e-18 -0.000290832 1.29655e-14 -7.90198e-15 -1.68518e-27 0.001415 
9743 1 -0.0492029 -0.00049722 0.0146134 0 0 0 6.58614e-16 7.50216e-16 -0.233331 9.55634e-19 1.08855e-18 -0.000290832 2.65465e-14 -2.33051e-14 1.03972e-27 0.001415 
9744 1 -0.0476714 0.00124731 0.0129948 0 0 0 1.70024e-17 1.93672e-17 -0.233331 3.01993e-19 3.43995e-19 -0.000290832 -8.36241e-15 7.34136e-15 1.85627e-29 0.001415 
3403 1 0.0399954 0.00144601 0.0131297 0 0 0 -1.20985e-15 5.72527e-17 -0.233331 -1.04911e-17 4.9646e-19 -0.000290832 1.3082e-15 2.76446e-14 -2.13332e-28 0.001415 
3526 1 0.0549212 0.000551996 0.0134927 0 0 0 -1.46662e-15 -6.6702e-16 -0.233331 -3.51395e-18 -1.59814e-18 -0.000290832 -2.1602e-14 4.74979e-14 -1.37069e-27 0.001415 
3843 1 -0.0432547 0.00201405 0.0137152 0 0 0 1.20916e-15 8.23878e-16 -0.233331 2.62453e-18 1.78826e-18 -0.000290832 1.65887e-14 -2.43464e-14 1.92774e-27 0.001415 
6238 1 0.0476834 0.00358837 0.0132507 0 0 0 1.58776e-15 -1.02159e-15 -0.233331 1.18147e-17 -7.60177e-18 -0.000290832 -2.55243e-14 -3.967e-14 7.68181e-28 0.001415 
1469 1 -0.0554428 0.00427207 0.0128737 0 0 0 6.39593e-16 6.16346e-16 -0.233331 3.99719e-18 3.8519e-18 -0.000290832 1.13607e-14 -1.17892e-14 -8.9376e-29 0.001415 
7479 1 0.00708078 0.00479504 0.0131575 0 0 0 -7.43305e-16 7.53758e-16 -0.233331 -7.50459e-19 7.61012e-19 -0.000290832 2.89305e-15 2.85293e-15 6.28842e-28 0.001415 
5546 1 -0.0286421 0.00814112 0.0130211 0 0 0 -1.12392e-15 -6.14465e-16 -0.233331 -7.83733e-18 -4.28478e-18 -0.000290832 -1.84222e-14 3.36962e-14 -3.03633e-27 0.001415 
7898 1 0.0197791 0.00861083 0.0143135 0 0 0 2.88703e-16 1.37613e-15 -0.233331 5.30774e-19 2.52999e-18 -0.000290832 3.15287e-14 -6.6145e-15 -4.40799e-28 0.001415 
4366 1 0.0434972 0.010956 0.0133286 0 0 0 -8.2778e-16 7.46718e-16 -0.233331 -7.47832e-19 6.74599e-19 -0.000290832 5.17881e-15 5.74101e-15 -1.77869e-28 0.001415 
1176 1 0.023371 0.01534 0.0143149 0 0 0 1.79107e-17 1.51765e-15 -0.233331 4.14012e-20 3.5081e-18 -0.000290832 2.35438e-14 -2.77855e-16 -4.71974e-30 0.001415 
4344 1 0.0486622 0.0138541 0.0136215 0 0 0 -1.31738e-15 -4.63033e-16 -0.233331 -2.09766e-18 -7.37285e-19 -0.000290832 -5.31612e-15 1.51249e-14 1.12759e-27 0.001415 
5629 1 -0.00809486 0.0186934 0.0134949 0 0 0 1.35987e-15 2.3789e-17 -0.233331 1.30201e-17 2.27768e-19 -0.000290832 9.80695e-16 -5.60602e-14 1.94758e-28 0.001415 
9993 1 -0.0262716 0.020692 0.0135902 0 0 0 -8.32614e-16 -7.95393e-16 -0.233331 -5.52766e-19 -5.28055e-19 -0.000290832 -1.73304e-14 1.81414e-14 1.25798e-27 0.001415 
3553 1 0.038325 0.0241144 0.0135924 0 0 0 -1.98338e-16 1.1603e-15 -0.233331 -1.74721e-19 1.02213e-18 -0.000290832 2.01129e-14 3.43804e-15 4.55437e-28 0.001415 
2811 1 0.0616855 0.0236687 0.0132116 0 0 0 2.49835e-16 1.26764e-15 -0.233331 3.38316e-19 1.71659e-18 -0.000290832 5.90994e-15 -1.16477e-15 -3.7998e-28 0.001415 
4218 1 0.00694369 0.0277865 0.0129548 0 0 0 1.47647e-16 -1.0912e-15 -0.233331 5.41899e-19 -4.00498e-18 -0.000290832 -2.5952e-14 -3.51146e-15 6.7148e-29 0.001415 
9956 1 0.047731 0.0274693 0.013407 0 0 0 2.69273e-16 1.49548e-15 -0.233331 2.51456e-18 1.39653e-17 -0.000290832 2.23872e-14 -4.03098e-15 -1.02352e-28 0.001415 
6007 1 0.0347873 0.0296881 0.0131769 0 0 0 3.8195e-16 4.27965e-16 -0.233331 4.39456e-19 4.924e-19 -0.000290832 -2.59265e-15 2.31388e-15 1.16477e-29 0.001415 
8774 1 0.0137081 0.0323084 0.0138506 0 0 0 -2.45599e-16 4.13334e-16 -0.233331 -2.03938e-19 3.43221e-19 -0.000290832 -5.11884e-15 -3.04156e-15 -2.49436e-29 0.001415 
6214 1 -0.0224995 0.0352466 0.0142668 0 0 0 -2.85405e-16 -1.32701e-15 -0.233331 -5.71564e-19 -2.65752e-18 -0.000290832 -3.71947e-14 7.99961e-15 1.18811e-27 0.001415 
7873 1 -0.0162209 0.0354611 0.0135003 0 0 0 5.39338e-16 6.37953e-16 -0.233331 4.89362e-19 5.78838e-19 -0.000290832 -7.23848e-15 6.11956e-15 6.19491e-28 0.001415 
6847 1 -0.0500743 0.0395872 0.0136569 0 0 0 -1.42937e-15 6.16518e-16 -0.233331 -1.35501e-17 5.84446e-18 -0.000290832 2.69714e-14 6.2532e-14 -2.61757e-27 0.001415 
487 1 0.0121003 0.044013 0.0141034 0 0 0 8.61047e-16 -7.29822e-16 -0.233331 5.66438e-19 -4.80112e-19 -0.000290832 -9.92301e-15 -1.17072e-14 3.12382e-28 0.001415 
9747 1 -0.0328934 0.0446643 0.0138736 0 0 0 2.25645e-16 -1.45324e-15 -0.233331 3.91611e-19 -2.52212e-18 -0.000290832 -2.64045e-14 -4.09985e-15 2.50771e-28 0.001415 
8988 1 0.0105277 0.0515901 0.0143609 0 0 0 5.20691e-16 -7.36639e-16 -0.233331 6.92999e-19 -9.80409e-19 -0.000290832 -3.17868e-14 -2.24684e-14 -5.98588e-29 0.001415 
8315 1 0.0261215 0.0546907 0.0140699 0 0 0 -1.43717e-15 5.94164e-16 -0.233331 -3.95641e-18 1.63569e-18 -0.000290832 1.09256e-14 2.6427e-14 -7.01884e-28 0.001415 
6908 1 0.00786074 0.0601069 0.0146398 0 0 0 1.10611e-15 -6.66464e-16 -0.233331 1.38041e-18 -8.31732e-19 -0.000290832 -5.84093e-15 -9.69406e-15 1.62963e-27 0.001415 
6047 1 -2.16486e-05 0.0672713 0.0134826 0 0 0 -1.40135e-15 -8.421e-17 -0.233331 -1.96685e-18 -1.18192e-19 -0.000290832 -1.05155e-15 1.7499e-14 1.4905e-28 0.001415 
7455 1 0.00864732 0.0657086 0.0136289 0 0 0 -6.18026e-17 1.46558e-15 -0.233331 -1.43713e-19 3.40801e-18 -0.000290832 1.72791e-14 7.28647e-16 -6.24728e-29 0.001415 
8757 1 0.00829498 0.0765507 0.0130754 0 0 0 0 0 -0.233331 0 0 -0.000290832 0 0 0 0.001415 