ITEM: TIMESTEP
105000
ITEM: NUMBER OF ATOMS
10248
ITEM: BOX BOUNDS ff ff ff
-0.2 0.2
-0.2 0.2
-0.01 0.5
ITEM: ATOMS id type x y z ix iy iz vx vy vz fx fy fz omegax omegay omegaz radius 
5124 1 -0.00943529 -0.0647942 0.00256408 0 0 0 -1.07558e-17 -3.786e-18 -0.220588 9.78164e-24 3.44311e-24 -0.000290849 2.4355e-16 -6.91908e-16 1.49158e-32 0.001415 
168 1 0.0236553 -0.0380352 0.00149957 0 0 0 1.12547e-17 1.50223e-16 -0.220588 3.10473e-19 4.14405e-18 -0.000290849 1.32007e-15 -9.89002e-17 -1.53339e-30 0.001415 
9891 1 -0.0536741 -0.00562861 0.00244855 0 0 0 7.12636e-18 -8.90071e-18 -0.220588 -6.48094e-24 8.09459e-24 -0.000290849 6.62962e-16 5.30801e-16 -2.89635e-31 0.001415 
8778 1 0.0127785 0.033873 0.00297286 0 0 0 -4.29741e-18 7.23238e-18 -0.220588 3.9082e-24 -6.57736e-24 -0.000290849 -4.43941e-16 -2.63785e-16 3.68636e-31 0.001415 
167 1 0.0236183 -0.0385289 0.00428593 0 0 0 -1.01443e-17 -1.35402e-16 -0.220588 -2.90538e-19 -3.87797e-18 -0.000290849 1.46894e-15 -1.10053e-16 5.71358e-30 0.001415 
5439 1 0.0255064 -0.015295 0.00484143 0 0 0 6.69751e-19 -1.27263e-18 -0.220588 -6.09093e-25 1.15737e-24 -0.000290849 -5.23913e-18 -2.75722e-18 2.221e-33 0.001415 
4096 1 0.0493328 0.0413049 0.00439344 0 0 0 9.64658e-18 -3.28005e-18 -0.220588 1.29058e-19 -4.38827e-20 -0.000290849 -2.42087e-16 -7.11975e-16 1.22528e-30 0.001415 
5123 1 -0.00890863 -0.0646088 0.00533845 0 0 0 9.81938e-18 3.45639e-18 -0.220588 -8.93006e-24 -3.14335e-24 -0.000290849 2.421e-16 -6.8779e-16 1.77201e-32 0.001415 
8779 1 0.0136066 -0.0379801 0.00596222 0 0 0 1.14881e-19 5.24082e-20 -0.220588 -1.04477e-25 -4.76617e-26 -0.000290849 -4.0782e-19 8.93962e-19 -5.00767e-34 0.001415 
6552 1 -0.00600865 -0.0297033 0.00657898 0 0 0 7.94159e-19 -1.28715e-19 -0.220588 -7.22234e-25 1.17057e-25 -0.000290849 -4.68482e-19 -2.8905e-18 -2.04097e-34 0.001415 
9890 1 -0.0540531 -0.00515523 0.00521281 0 0 0 -6.21434e-18 7.76161e-18 -0.220588 5.65152e-24 -7.05866e-24 -0.000290849 6.56955e-16 5.25992e-16 -2.89955e-31 0.001415 
4516 1 0.00201022 -0.00437069 0.0059989 0 0 0 -1.07231e-18 1.28012e-18 -0.220588 9.75195e-25 -1.16419e-24 -0.000290849 4.69458e-18 3.93247e-18 -1.24816e-32 0.001415 
5818 1 0.0744051 0.00953964 0.00550835 0 0 0 2.36863e-19 -2.27665e-19 -0.220588 -2.15411e-25 2.07046e-25 -0.000290849 -2.53186e-19 -2.63416e-19 -1.71785e-34 0.001415 
6447 1 -0.0515136 0.0117203 0.00582129 0 0 0 -1.10175e-18 1.34219e-18 -0.220588 1.00197e-24 -1.22063e-24 -0.000290849 4.42245e-18 3.63021e-18 -1.38193e-32 0.001415 
4347 1 0.0446345 0.0124385 0.00657806 0 0 0 -7.28287e-19 -2.55978e-19 -0.220588 6.62327e-25 2.32795e-25 -0.000290849 -2.68507e-19 7.63931e-19 -3.2509e-35 0.001415 
9996 1 -0.0293411 0.0177597 0.00653272 0 0 0 -1.75257e-18 -1.67423e-18 -0.220588 1.59385e-24 1.5226e-24 -0.000290849 -7.58329e-18 7.93815e-18 1.07767e-32 0.001415 
4221 1 0.00751144 0.0235905 0.00589115 0 0 0 3.08439e-20 -2.27956e-19 -0.220588 -2.80504e-26 2.07311e-25 -0.000290849 4.14636e-19 5.61028e-20 1.08551e-34 0.001415 
3550 1 0.0375782 0.0284832 0.00664621 0 0 0 -1.07713e-18 6.30132e-18 -0.220588 9.79579e-25 -5.73063e-24 -0.000290849 3.71268e-17 6.34637e-18 -1.166e-32 0.001415 
2814 1 0.0624335 0.0274639 0.00594907 0 0 0 1.42416e-19 7.22607e-19 -0.220588 -1.29518e-25 -6.57162e-25 -0.000290849 1.1736e-18 -2.31301e-19 1.9577e-33 0.001415 
8777 1 0.0130109 0.0334818 0.00576604 0 0 0 4.09763e-18 -6.89615e-18 -0.220588 -3.72651e-24 6.27158e-24 -0.000290849 -4.43168e-16 -2.63326e-16 3.68515e-31 0.001415 
4641 1 -0.00200478 0.0474767 0.00507062 0 0 0 -2.10643e-18 1.13422e-18 -0.220588 1.91566e-24 -1.0315e-24 -0.000290849 5.34867e-18 9.93334e-18 -2.46537e-33 0.001415 
5122 1 -0.00838197 -0.0644234 0.00811283 0 0 0 4.73297e-19 1.66599e-19 -0.220588 -9.55179e-21 -3.3622e-21 -0.000290849 9.16497e-17 -2.60371e-16 -2.00216e-30 0.001415 
8780 1 0.0123897 -0.0385353 0.00845616 0 0 0 2.12076e-17 9.67477e-18 -0.220588 2.88871e-19 1.31781e-19 -0.000290849 -1.81478e-15 3.9781e-15 1.88066e-30 0.001415 
166 1 0.0235813 -0.0390227 0.00707228 0 0 0 -1.05413e-18 -1.407e-17 -0.220588 -1.99354e-20 -2.66089e-19 -0.000290849 1.50126e-16 -1.12475e-17 7.24688e-30 0.001415 
1407 1 0.0135434 -0.0200891 0.00727031 0 0 0 -6.80098e-19 -1.98964e-19 -0.220588 6.18503e-25 1.80944e-25 -0.000290849 -4.80064e-19 1.64095e-18 -6.54875e-34 0.001415 
8589 1 -0.0402517 -0.0187189 0.00737727 0 0 0 5.78192e-20 -7.6358e-19 -0.220588 -5.25826e-26 6.94425e-25 -0.000290849 3.63277e-18 2.75078e-19 -1.53629e-32 0.001415 
5438 1 0.0249608 -0.0142584 0.0074176 0 0 0 6.16424e-17 -1.1713e-16 -0.220588 4.37938e-18 -8.32147e-18 -0.000290849 -1.55146e-15 -8.16493e-16 2.95456e-30 0.001415 
2100 1 -0.012979 -0.0106864 0.00748492 0 0 0 1.38911e-16 2.52039e-17 -0.220588 9.99846e-18 1.81411e-18 -0.000290849 -1.7454e-16 9.61973e-16 8.90895e-31 0.001415 
9889 1 -0.0544321 -0.00468185 0.00797708 0 0 0 -9.12021e-19 1.1391e-18 -0.220588 8.29422e-25 -1.03593e-24 -0.000290849 -6.0072e-18 -4.80967e-18 -3.20205e-34 0.001415 
4517 1 0.00302288 -0.0055796 0.00834879 0 0 0 1.07231e-18 -1.28012e-18 -0.220588 -9.75195e-25 1.16419e-24 -0.000290849 4.69458e-18 3.93247e-18 -1.24816e-32 0.001415 
7477 1 0.00556963 0.00632744 0.00821769 0 0 0 0 0 -0.220588 0 0 -0.000290849 0 0 0 0.001415 
6446 1 -0.0505093 0.0104969 0.00816724 0 0 0 -1.90961e-18 2.32636e-18 -0.220588 -4.17084e-20 5.08106e-20 -0.000290849 3.77145e-17 3.09583e-17 5.90526e-31 0.001415 
5819 1 0.0733204 0.0105822 0.00790529 0 0 0 -2.36863e-19 2.27665e-19 -0.220588 2.15411e-25 -2.07046e-25 -0.000290849 -2.53186e-19 -2.63416e-19 -1.71785e-34 0.001415 
4368 1 0.0417993 0.0124877 0.00844609 0 0 0 0 0 -0.220588 0 0 -0.000290849 0 0 0 0.001415 
1281 1 -0.00910888 0.0220965 0.0069473 0 0 0 -7.20043e-19 -2.66725e-19 -0.220588 6.54831e-25 2.42569e-25 -0.000290849 -8.97992e-19 2.42419e-18 -9.39129e-34 0.001415 
4220 1 0.00732219 0.0249892 0.00834406 0 0 0 1.1935e-18 -8.82071e-18 -0.220588 1.7643e-20 -1.30393e-19 -0.000290849 -1.06927e-16 -1.4468e-17 6.23123e-31 0.001415 
2813 1 0.0621842 0.0261988 0.00846826 0 0 0 1.03598e-18 5.25648e-18 -0.220588 1.74147e-20 8.83605e-20 -0.000290849 -1.31243e-16 2.58663e-17 -2.54976e-32 0.001415 
8776 1 0.0132433 0.0330907 0.00855923 0 0 0 -5.16514e-19 8.69274e-19 -0.220588 -1.06711e-20 1.79591e-20 -0.000290849 -3.47636e-17 -2.06562e-17 4.35351e-31 0.001415 
3969 1 -0.0266131 0.0377733 0.00796454 0 0 0 -1.1944e-17 3.73663e-17 -0.220588 -1.5966e-19 4.9949e-19 -0.000290849 -3.59647e-15 -1.1496e-15 1.03161e-30 0.001415 
7875 1 -0.0151895 0.0366812 0.00836547 0 0 0 3.19513e-18 3.77934e-18 -0.220588 4.29065e-20 5.07517e-20 -0.000290849 3.06182e-16 -2.58853e-16 -1.09067e-31 0.001415 
484 1 0.0153265 0.0412785 0.00703672 0 0 0 2.85381e-18 -2.41888e-18 -0.220588 -2.59534e-24 2.19981e-24 -0.000290849 -1.26413e-17 -1.49143e-17 1.11462e-32 0.001415 
4097 1 0.0483957 0.0416236 0.00704472 0 0 0 -8.18703e-18 2.78377e-18 -0.220588 -1.2906e-19 4.38832e-20 -0.000290849 -2.43608e-16 -7.16448e-16 1.22382e-30 0.001415 
4640 1 -0.000842548 0.0468509 0.00757392 0 0 0 -1.63983e-16 8.82975e-17 -0.220588 -1.11575e-17 6.00782e-18 -0.000290849 -1.89099e-16 -3.51187e-16 3.29073e-30 0.001415 
7350 1 0.0388042 0.0484249 0.00727779 0 0 0 -4.44031e-21 -7.50898e-20 -0.220588 4.03817e-27 6.82891e-26 -0.000290849 2.59556e-19 -1.53485e-20 3.67261e-36 0.001415 
6406 1 -0.013834 -0.0547628 0.00976456 0 0 0 1.19637e-17 -3.48789e-18 -0.220588 1.61026e-19 -4.69452e-20 -0.000290849 -2.07227e-16 -7.10805e-16 -6.85309e-31 0.001415 
4747 1 -0.048396 -0.0516837 0.0105533 0 0 0 -3.56388e-17 5.21081e-18 -0.220588 -4.82875e-19 7.06018e-20 -0.000290849 -1.78112e-16 -1.21818e-15 -4.82055e-31 0.001415 
8904 1 0.00698378 -0.051284 0.0100727 0 0 0 0 0 -0.220588 0 0 -0.000290849 0 0 0 0.001415 
9219 1 -0.0350531 -0.0474779 0.00883645 0 0 0 0 0 -0.220588 0 0 -0.000290849 0 0 0 0.001415 
8295 1 0.0424827 -0.0477148 0.00910416 0 0 0 0 0 -0.220588 0 0 -0.000290849 0 0 0 0.001415 
165 1 0.0235443 -0.0395164 0.00985863 0 0 0 2.75414e-19 3.6761e-18 -0.220588 9.57146e-21 1.27755e-19 -0.000290849 -1.04305e-16 7.81456e-18 1.57323e-29 0.001415 
6551 1 -0.00658842 -0.0296093 0.00934736 0 0 0 2.83303e-18 -4.59167e-19 -0.220588 4.87677e-20 -7.90409e-21 -0.000290849 -3.85561e-17 -2.37888e-16 2.15823e-32 0.001415 
9787 1 -0.0202299 -0.023698 0.0101625 0 0 0 -5.07869e-18 -6.31519e-18 -0.220588 -7.06562e-20 -8.78588e-20 -0.000290849 -3.19193e-16 2.56696e-16 -3.59481e-30 0.001415 
1406 1 0.0148736 -0.0197 0.00973773 0 0 0 6.80098e-19 1.98964e-19 -0.220588 -6.18503e-25 -1.80944e-25 -0.000290849 -4.80064e-19 1.64095e-18 -6.54875e-34 0.001415 
8588 1 -0.0403296 -0.0176897 0.0100123 0 0 0 3.86944e-18 -5.11012e-17 -0.220588 7.16813e-20 -9.46648e-19 -0.000290849 5.79899e-15 4.39106e-16 4.68508e-29 0.001415 
8820 1 0.00980992 -0.0172644 0.0103401 0 0 0 0 0 -0.220588 0 0 -0.000290849 0 0 0 0.001415 
3529 1 0.0670132 -0.0166749 0.0106401 0 0 0 0 0 -0.220588 0 0 -0.000290849 0 0 0 0.001415 
4473 1 -0.0215554 -0.0144106 0.0101168 0 0 0 0 0 -0.220588 0 0 -0.000290849 0 0 0 0.001415 
5437 1 0.0244153 -0.0132218 0.00999378 0 0 0 -5.22283e-17 9.92415e-17 -0.220588 -4.19716e-18 7.97524e-18 -0.000290849 5.28244e-16 2.78001e-16 7.26664e-30 0.001415 
2099 1 -0.0146787 -0.0109948 0.0097265 0 0 0 -1.33488e-16 -2.422e-17 -0.220588 -9.85474e-18 -1.78804e-18 -0.000290849 -1.22096e-16 6.72932e-16 3.73078e-32 0.001415 
3528 1 0.0516347 -0.000942708 0.00942877 0 0 0 -1.33596e-17 -6.07596e-18 -0.220588 -1.79275e-19 -8.15342e-20 -0.000290849 -4.15187e-16 9.12901e-16 -8.87079e-31 0.001415 
2457 1 0.0227749 0.00368251 0.00975175 0 0 0 0 0 -0.220588 0 0 -0.000290849 0 0 0 0.001415 
6445 1 -0.0495051 0.00927345 0.0105132 0 0 0 -1.52485e-19 1.85763e-19 -0.220588 -6.7368e-21 8.207e-21 -0.000290849 -1.35527e-16 -1.11248e-16 2.91358e-30 0.001415 
4431 1 -0.0620527 0.012605 0.0105077 0 0 0 -3.06817e-17 6.55429e-18 -0.220588 -6.1251e-19 1.30846e-19 -0.000290849 -1.17392e-15 -5.4953e-15 -3.97623e-29 0.001415 
4346 1 0.0459771 0.0129104 0.00902423 0 0 0 -7.62346e-18 -2.6795e-18 -0.220588 -1.12313e-19 -3.94759e-20 -0.000290849 -1.96247e-16 5.58344e-16 -1.09452e-30 0.001415 
5820 1 0.0722357 0.0116248 0.0103022 0 0 0 6.72222e-18 -6.46117e-18 -0.220588 9.03697e-20 -8.68603e-20 -0.000290849 -4.62029e-16 -4.80696e-16 -3.62012e-30 0.001415 
9995 1 -0.0283179 0.0187371 0.00898357 0 0 0 1.75257e-18 1.67423e-18 -0.220588 -1.59385e-24 -1.5226e-24 -0.000290849 -7.58329e-18 7.93815e-18 1.07767e-32 0.001415 
1280 1 -0.00826091 0.0224106 0.00962894 0 0 0 7.20043e-19 2.66725e-19 -0.220588 -6.54831e-25 -2.42569e-25 -0.000290849 -8.97992e-19 2.42419e-18 -9.39129e-34 0.001415 
3551 1 0.0378271 0.027027 0.00905997 0 0 0 1.07713e-18 -6.30132e-18 -0.220588 -9.79579e-25 5.73063e-24 -0.000290849 3.71268e-17 6.34637e-18 -1.166e-32 0.001415 
3968 1 -0.0261983 0.0364757 0.0104451 0 0 0 1.1944e-17 -3.73663e-17 -0.220588 1.5966e-19 -4.9949e-19 -0.000290849 -3.59647e-15 -1.1496e-15 1.03161e-30 0.001415 
9745 1 -0.0323504 0.0411674 0.00975138 0 0 0 0 0 -0.220588 0 0 -0.000290849 0 0 0 0.001415 
485 1 0.0142511 0.04219 0.00949061 0 0 0 -2.85381e-18 2.41888e-18 -0.220588 2.59534e-24 -2.19981e-24 -0.000290849 -1.26413e-17 -1.49143e-17 1.11462e-32 0.001415 
4098 1 0.0474587 0.0419422 0.009696 0 0 0 1.31161e-18 -4.45975e-19 -0.220588 3.75711e-20 -1.2775e-20 -0.000290849 -3.2732e-17 -9.62644e-17 -1.79828e-31 0.001415 
4639 1 0.000319678 0.0462251 0.0100772 0 0 0 1.53254e-16 -8.25204e-17 -0.220588 1.08796e-17 -5.85818e-18 -0.000290849 1.53871e-16 2.85763e-16 9.30516e-31 0.001415 
7349 1 0.0388392 0.0490157 0.0100452 0 0 0 -7.5272e-19 -1.27292e-17 -0.220588 -1.75467e-20 -2.96731e-19 -0.000290849 -1.97789e-16 1.16959e-17 -3.63561e-30 0.001415 
3318 1 0.0108764 -0.0748018 0.0121343 0 0 0 0 0 -0.220588 0 0 -0.000290849 0 0 0 0.001415 
5121 1 -0.0078553 -0.064238 0.0108872 0 0 0 -9.48525e-18 -3.33878e-18 -0.220588 -2.30403e-19 -8.11012e-20 -0.000290849 -2.55116e-16 7.24767e-16 5.82946e-29 0.001415 
6407 1 -0.0157638 -0.0542001 0.0117566 0 0 0 -1.19637e-17 3.48789e-18 -0.220588 -1.61026e-19 4.69452e-20 -0.000290849 -2.07227e-16 -7.10805e-16 -6.85309e-31 0.001415 
4748 1 -0.0463698 -0.05198 0.0125067 0 0 0 1.33551e-17 -1.95267e-18 -0.220588 -4.61924e-20 6.75386e-21 -0.000290849 -1.50714e-15 -1.03079e-14 3.99593e-29 0.001415 
8903 1 0.00719176 -0.0530399 0.0122824 0 0 0 -2.41602e-18 2.03971e-17 -0.220588 -6.32568e-20 5.34043e-19 -0.000290849 -5.14922e-15 -6.09919e-16 4.58983e-29 0.001415 
8421 1 -0.0125515 -0.050364 0.0119598 0 0 0 0 0 -0.220588 0 0 -0.000290849 0 0 0 0.001415 
5040 1 0.0412118 -0.051077 0.0115369 0 0 0 0 0 -0.220588 0 0 -0.000290849 0 0 0 0.001415 
9218 1 -0.0344149 -0.0491301 0.0110437 0 0 0 -6.70459e-18 1.73546e-17 -0.220588 -1.51382e-19 3.91849e-19 -0.000290849 -2.81211e-15 -1.0864e-15 -4.66868e-29 0.001415 
8294 1 0.0417911 -0.0460756 0.011305 0 0 0 0 0 -0.220588 0 0 -0.000290849 0 0 0 0.001415 
8781 1 0.0111727 -0.0390904 0.0109501 0 0 0 -2.13225e-17 -9.72718e-18 -0.220588 -2.88871e-19 -1.31781e-19 -0.000290849 -1.81438e-15 3.9772e-15 1.88116e-30 0.001415 
7141 1 -0.0440609 -0.0300013 0.0124974 0 0 0 0 0 -0.220588 0 0 -0.000290849 0 0 0 0.001415 
6550 1 -0.00716818 -0.0295154 0.0121157 0 0 0 -3.62719e-18 5.87882e-19 -0.220588 -4.87669e-20 7.90398e-21 -0.000290849 -3.80876e-17 -2.34998e-16 2.17864e-32 0.001415 
9788 1 -0.0191042 -0.0222982 0.0123494 0 0 0 -3.96573e-18 -4.93126e-18 -0.220588 -1.93766e-19 -2.40942e-19 -0.000290849 3.99374e-15 -3.21178e-15 1.38651e-28 0.001415 
1405 1 0.0162037 -0.0193109 0.0122051 0 0 0 -2.96246e-17 -8.66672e-18 -0.220588 -6.68112e-19 -1.95457e-19 -0.000290849 1.28637e-15 -4.39707e-15 -6.14854e-29 0.001415 
8819 1 0.00974619 -0.0192248 0.0123802 0 0 0 1.23649e-18 3.80305e-17 -0.220588 2.64839e-20 8.14563e-19 -0.000290849 -5.06791e-15 1.64773e-16 -3.92126e-29 0.001415 
4472 1 -0.0211077 -0.0159411 0.0124548 0 0 0 -1.39816e-17 4.77931e-17 -0.220588 -2.7213e-19 9.30217e-19 -0.000290849 -8.42753e-15 -2.46542e-15 -8.48569e-29 0.001415 
4389 1 -0.00210167 -0.0164576 0.0111468 0 0 0 4.89581e-18 -2.38665e-18 -0.220588 1.3946e-19 -6.79851e-20 -0.000290849 -1.55626e-16 -3.19241e-16 -9.28725e-30 0.001415 
2098 1 -0.0163785 -0.0113032 0.0119681 0 0 0 -5.42241e-18 -9.83838e-19 -0.220588 -1.43711e-19 -2.60749e-20 -0.000290849 5.24434e-17 -2.89041e-16 -8.53587e-31 0.001415 
4518 1 0.00403554 -0.00678852 0.0106987 0 0 0 -1.90335e-17 2.27222e-17 -0.220588 -3.82509e-19 4.56639e-19 -0.000290849 -5.50284e-15 -4.60952e-15 -1.13329e-28 0.001415 
9888 1 -0.0548111 -0.00420847 0.0107413 0 0 0 5.32384e-18 -6.64939e-18 -0.220588 1.39239e-19 -1.73908e-19 -0.000290849 -2.21222e-16 -1.77122e-16 -6.90378e-30 0.001415 
3527 1 0.053278 -0.000195356 0.0116082 0 0 0 1.33596e-17 6.07596e-18 -0.220588 1.79275e-19 8.15342e-20 -0.000290849 -4.15187e-16 9.12901e-16 -8.87079e-31 0.001415 
4852 1 -0.0576017 0.00160357 0.0123692 0 0 0 1.08311e-17 1.77716e-17 -0.220588 2.78495e-19 4.56951e-19 -0.000290849 -2.96243e-15 1.80549e-15 2.12437e-29 0.001415 
2456 1 0.0231999 0.00341526 0.0125369 0 0 0 -2.18978e-16 1.37709e-16 -0.220588 -2.20547e-18 1.38696e-18 -0.000290849 9.89945e-16 1.57416e-15 -3.04969e-29 0.001415 
1470 1 -0.0541433 0.00552442 0.0109889 0 0 0 2.25383e-17 2.17191e-17 -0.220588 4.56439e-19 4.39849e-19 -0.000290849 -5.03723e-15 5.22722e-15 5.08538e-29 0.001415 
7478 1 0.0063252 0.00556124 0.0108351 0 0 0 0 0 -0.220588 0 0 -0.000290849 0 0 0 0.001415 
5545 1 -0.0302182 0.00727945 0.0111292 0 0 0 0 0 -0.220588 0 0 -0.000290849 0 0 0 0.001415 
4367 1 0.0426483 0.0117219 0.0110349 0 0 0 -1.16014e-17 1.04653e-17 -0.220588 -3.03948e-19 2.74183e-19 -0.000290849 -8.48894e-16 -9.41048e-16 3.04141e-29 0.001415 
4345 1 0.0473197 0.0133822 0.0114704 0 0 0 8.35175e-18 2.93547e-18 -0.220588 1.12313e-19 3.94756e-20 -0.000290849 -1.95979e-16 5.5758e-16 -1.09449e-30 0.001415 
9994 1 -0.0272948 0.0197145 0.0114344 0 0 0 -2.15843e-17 -2.06194e-17 -0.220588 -4.79968e-19 -4.58512e-19 -0.000290849 3.31126e-15 -3.46621e-15 5.48943e-29 0.001415 
1279 1 -0.00741294 0.0227247 0.0123106 0 0 0 -2.51387e-17 -9.31214e-18 -0.220588 -5.36204e-19 -1.98626e-19 -0.000290849 2.71265e-16 -7.32298e-16 -3.01008e-29 0.001415 
2812 1 0.0619348 0.0249338 0.0109874 0 0 0 2.79273e-18 1.41701e-17 -0.220588 8.40398e-20 4.26411e-19 -0.000290849 -1.2573e-15 2.47796e-16 -3.45758e-29 0.001415 
4219 1 0.00713294 0.0263879 0.010797 0 0 0 1.97824e-18 -1.46205e-17 -0.220588 5.97997e-20 -4.41958e-19 -0.000290849 2.74022e-15 3.70769e-16 3.9348e-30 0.001415 
3552 1 0.038076 0.0255707 0.0114737 0 0 0 -1.70502e-18 9.97453e-18 -0.220588 -4.98987e-20 2.91912e-19 -0.000290849 -2.54063e-15 -4.34289e-16 3.26832e-29 0.001415 
9955 1 0.0480973 0.0295036 0.0117691 0 0 0 0 0 -0.220588 0 0 -0.000290849 0 0 0 0.001415 
6216 1 -0.023401 0.0310553 0.0108664 0 0 0 -2.04241e-18 -9.49631e-18 -0.220588 -2.83326e-20 -1.31734e-19 -0.000290849 -3.82347e-16 8.2233e-17 6.88728e-31 0.001415 
8775 1 0.0134757 0.0326995 0.0113524 0 0 0 -1.42264e-18 2.39425e-18 -0.220588 -5.02437e-20 8.45583e-20 -0.000290849 1.88447e-16 1.11974e-16 -6.26272e-30 0.001415 
7874 1 -0.0157052 0.0360712 0.0110804 0 0 0 -3.19513e-18 -3.77934e-18 -0.220588 -4.29065e-20 -5.07517e-20 -0.000290849 3.06182e-16 -2.58853e-16 -1.09067e-31 0.001415 
4099 1 0.0465216 0.0422608 0.0123473 0 0 0 -2.77116e-18 9.42254e-19 -0.220588 -3.75697e-20 1.27745e-20 -0.000290849 -3.12113e-17 -9.17921e-17 -1.78366e-31 0.001415 
9746 1 -0.0326219 0.0429159 0.01196 0 0 0 3.78258e-18 -2.43611e-17 -0.220588 9.44225e-20 -6.08115e-19 -0.000290849 5.66801e-15 8.80077e-16 -3.21394e-29 0.001415 
486 1 0.0131757 0.0431015 0.0119445 0 0 0 3.14878e-17 -2.66891e-17 -0.220588 6.40337e-19 -5.42749e-19 -0.000290849 5.6854e-15 6.70766e-15 -1.17988e-29 0.001415 
8316 1 0.0241447 0.055508 0.0125121 0 0 0 0 0 -0.220588 0 0 -0.000290849 0 0 0 0.001415 
6048 1 -0.0014895 0.0671831 0.0113597 0 0 0 -2.26783e-17 -1.36279e-18 -0.220588 -5.76545e-19 -3.46459e-20 -0.000290849 1.79187e-16 -2.98186e-15 -9.33102e-30 0.001415 
3317 1 0.00879117 -0.0741345 0.0139275 0 0 0 8.23465e-16 -2.6352e-16 -0.220588 1.56009e-17 -4.9925e-18 -0.000290849 -3.73491e-15 -1.16711e-14 -5.47109e-28 0.001415 
4537 1 0.0348065 -0.0668743 0.0139054 0 0 0 2.62096e-16 -5.10415e-16 -0.220588 4.78005e-18 -9.30882e-18 -0.000290849 6.44064e-15 3.30725e-15 4.01327e-30 0.001415 
5120 1 -0.00732864 -0.0640527 0.0136616 0 0 0 -3.17923e-16 -1.11908e-16 -0.220588 -5.90736e-18 -2.07937e-18 -0.000290849 1.57095e-15 -4.46296e-15 6.48308e-29 0.001415 
4749 1 -0.0443437 -0.0522762 0.0144602 0 0 0 -6.08386e-16 8.8953e-17 -0.220588 -1.24328e-17 1.81782e-18 -0.000290849 1.86044e-15 1.27243e-14 1.76292e-29 0.001415 
6408 1 -0.0176936 -0.0536375 0.0137487 0 0 0 8.83473e-16 -2.57567e-16 -0.220588 1.6769e-17 -4.88883e-18 -0.000290849 -1.7605e-15 -6.03863e-15 2.71927e-29 0.001415 
9217 1 -0.0337766 -0.0507822 0.0132509 0 0 0 -2.2342e-16 5.78317e-16 -0.220588 -2.09015e-18 5.41029e-18 -0.000290849 1.99142e-16 7.69344e-17 5.44796e-28 0.001415 
5039 1 0.0393096 -0.0515993 0.0135662 0 0 0 8.10181e-16 2.22459e-16 -0.220588 1.39352e-17 3.82632e-18 -0.000290849 1.60632e-15 -5.85011e-15 2.3875e-28 0.001415 
8420 1 -0.0130316 -0.0490822 0.0144368 0 0 0 2.68174e-16 -7.16079e-16 -0.220588 5.25467e-18 -1.4031e-17 -0.000290849 -7.25533e-16 -2.71715e-16 3.57619e-28 0.001415 
8293 1 0.0410995 -0.0444363 0.0135058 0 0 0 3.51568e-16 -8.3328e-16 -0.220588 6.73149e-18 -1.59549e-17 -0.000290849 -1.72734e-14 -7.28778e-15 4.32282e-28 0.001415 
8782 1 0.00995582 -0.0396456 0.0134441 0 0 0 6.06079e-16 2.7649e-16 -0.220588 1.21933e-17 5.56253e-18 -0.000290849 5.36092e-15 -1.17514e-14 -2.75158e-28 0.001415 
164 1 0.0235073 -0.0400101 0.012645 0 0 0 2.22837e-17 2.97432e-16 -0.220588 3.22274e-19 4.30157e-18 -0.000290849 -4.06223e-15 3.04343e-16 2.21376e-29 0.001415 
1765 1 -0.00582286 -0.0341936 0.0141989 0 0 0 6.93053e-16 -2.16883e-16 -0.220588 1.37797e-17 -4.3122e-18 -0.000290849 -5.38846e-15 -1.7219e-14 7.63064e-29 0.001415 
2898 1 -0.0015393 -0.0260351 0.0144711 0 0 0 4.87468e-16 -9.62308e-17 -0.220588 8.90686e-18 -1.7583e-18 -0.000290849 3.3041e-16 1.67373e-15 -3.35255e-29 0.001415 
1113 1 0.057839 -0.0250229 0.0133277 0 0 0 7.53001e-16 3.86324e-16 -0.220588 1.47451e-17 7.56493e-18 -0.000290849 3.95563e-15 -7.7101e-15 -4.40111e-29 0.001415 
2604 1 -0.0264828 -0.0239558 0.0141956 0 0 0 7.098e-16 -3.09043e-17 -0.220588 1.38156e-17 -6.01526e-19 -0.000290849 -8.82572e-16 -2.02706e-14 2.23531e-29 0.001415 
8818 1 0.00968245 -0.0211851 0.0144203 0 0 0 2.48214e-17 7.63428e-16 -0.220588 4.9082e-19 1.50961e-17 -0.000290849 1.88655e-15 -6.13376e-17 -2.76655e-29 0.001415 
3530 1 0.0663652 -0.0174708 0.0132774 0 0 0 4.61591e-16 5.66926e-16 -0.220588 8.28336e-18 1.01736e-17 -0.000290849 -6.27706e-16 5.11078e-16 -5.39272e-28 0.001415 
8587 1 -0.0404076 -0.0166605 0.0126474 0 0 0 3.82992e-17 -5.05793e-16 -0.220588 4.88418e-19 -6.45022e-18 -0.000290849 1.28664e-15 9.74261e-17 -1.93671e-29 0.001415 
4388 1 -0.00265555 -0.0161876 0.0139089 0 0 0 3.26064e-16 -1.58953e-16 -0.220588 6.06133e-18 -2.95483e-18 -0.000290849 1.95935e-15 4.01928e-15 2.05227e-29 0.001415 
2097 1 -0.0180782 -0.0116116 0.0142097 0 0 0 8.20962e-16 1.48955e-16 -0.220588 1.61787e-17 2.93544e-18 -0.000290849 2.78742e-15 -1.53629e-14 -2.65667e-28 0.001415 
5436 1 0.0238697 -0.0121851 0.01257 0 0 0 3.38682e-20 -6.43547e-20 -0.220588 6.72222e-20 -1.27732e-19 -0.000290849 3.67807e-15 1.93568e-15 -1.78529e-29 0.001415 
4519 1 0.0050482 -0.00799743 0.0130486 0 0 0 -3.32717e-16 3.97197e-16 -0.220588 -4.08334e-18 4.87469e-18 -0.000290849 1.14341e-15 9.5779e-16 3.0314e-28 0.001415 
9887 1 -0.0551901 -0.00373509 0.0135056 0 0 0 2.28032e-16 -2.84809e-16 -0.220588 4.23316e-18 -5.28715e-18 -0.000290849 3.77837e-15 3.02516e-15 -4.83752e-29 0.001415 
4853 1 -0.0586257 -7.65915e-05 0.0144033 0 0 0 4.22153e-16 6.92664e-16 -0.220588 8.21305e-18 1.34759e-17 -0.000290849 -8.48465e-16 5.17108e-16 7.33609e-29 0.001415 
9744 1 -0.0476714 0.00124731 0.0132898 0 0 0 5.87967e-18 6.69744e-18 -0.220588 1.65946e-19 1.89027e-19 -0.000290849 -1.81693e-15 1.59508e-15 -9.1939e-30 0.001415 
3403 1 0.0399954 0.00144601 0.0134248 0 0 0 -7.18266e-16 3.39899e-17 -0.220588 -1.22873e-17 5.81459e-19 -0.000290849 3.66432e-16 7.74334e-15 -2.8252e-29 0.001415 
3526 1 0.0549212 0.000551996 0.0137877 0 0 0 -8.27574e-16 -3.76381e-16 -0.220588 -1.59788e-17 -7.26716e-18 -0.000290849 -7.58223e-15 1.66716e-14 -8.61483e-28 0.001415 
3843 1 -0.0432547 0.00201405 0.0140103 0 0 0 6.64371e-16 4.52678e-16 -0.220588 1.31015e-17 8.92689e-18 -0.000290849 4.08224e-15 -5.99128e-15 9.14215e-28 0.001415 
6238 1 0.0476834 0.00358837 0.0135458 0 0 0 8.40823e-16 -5.40999e-16 -0.220588 1.59506e-17 -1.02629e-17 -0.000290849 -4.44092e-15 -6.90209e-15 1.14836e-28 0.001415 
1469 1 -0.0554428 0.00427207 0.0131687 0 0 0 4.5011e-16 4.3375e-16 -0.220588 4.81095e-18 4.63609e-18 -0.000290849 5.45622e-15 -5.66201e-15 -2.66212e-28 0.001415 
7479 1 0.00708078 0.00479504 0.0134525 0 0 0 -4.31412e-16 4.37479e-16 -0.220588 -8.03881e-18 8.15185e-18 -0.000290849 -1.83465e-15 -1.80921e-15 4.17171e-29 0.001415 
6444 1 -0.0485008 0.00805 0.0128592 0 0 0 -1.33177e-17 1.62241e-17 -0.220588 -3.56671e-19 4.34509e-19 -0.000290849 -4.56965e-15 -3.75104e-15 -1.09405e-28 0.001415 
5546 1 -0.0286421 0.00814112 0.0133161 0 0 0 -7.59116e-16 -4.1502e-16 -0.220588 -9.04413e-18 -4.94456e-18 -0.000290849 -8.52627e-15 1.55955e-14 -3.44709e-28 0.001415 
7897 1 0.0202104 0.0106666 0.012712 0 0 0 6.15165e-18 2.93225e-17 -0.220588 1.41718e-19 6.75516e-19 -0.000290849 -5.23454e-15 1.09817e-15 -6.93694e-30 0.001415 
4366 1 0.0434972 0.010956 0.0136236 0 0 0 -4.83442e-16 4.361e-16 -0.220588 -8.8331e-18 7.9681e-18 -0.000290849 -4.94134e-16 -5.47776e-16 3.94085e-29 0.001415 
4430 1 -0.0607358 0.0123237 0.0129968 0 0 0 -5.20728e-16 1.11239e-16 -0.220588 -5.38138e-18 1.14958e-18 -0.000290849 6.80304e-16 3.18461e-15 1.94063e-30 0.001415 
5821 1 0.071151 0.0126674 0.0126992 0 0 0 -6.72222e-18 6.46117e-18 -0.220588 -9.03697e-20 8.68603e-20 -0.000290849 -4.62029e-16 -4.80696e-16 -3.62012e-30 0.001415 
4344 1 0.0486622 0.0138541 0.0139166 0 0 0 -7.50344e-16 -2.63731e-16 -0.220588 -1.46888e-17 -5.16283e-18 -0.000290849 -1.14849e-15 3.26759e-15 3.19939e-28 0.001415 
5629 1 -0.00809486 0.0186934 0.0137899 0 0 0 7.48962e-16 1.31021e-17 -0.220588 1.53036e-17 2.67716e-19 -0.000290849 4.18462e-16 -2.39208e-14 5.47875e-29 0.001415 
9993 1 -0.0262716 0.020692 0.0138853 0 0 0 -4.67355e-16 -4.46462e-16 -0.220588 -9.43915e-18 -9.01719e-18 -0.000290849 -6.4795e-15 6.78271e-15 3.0077e-28 0.001415 
3553 1 0.038325 0.0241144 0.0138875 0 0 0 -1.10275e-16 6.45116e-16 -0.220588 -2.21705e-18 1.297e-17 -0.000290849 6.94184e-15 1.18662e-15 9.88308e-29 0.001415 
2811 1 0.0616855 0.0236687 0.0135066 0 0 0 1.43013e-16 7.25635e-16 -0.220588 2.7502e-18 1.39543e-17 -0.000290849 -2.2147e-15 4.36487e-16 -8.75424e-29 0.001415 
4218 1 0.00694369 0.0277865 0.0132499 0 0 0 9.31013e-17 -6.88079e-16 -0.220588 1.84983e-18 -1.36715e-17 -0.000290849 -7.41001e-15 -1.00262e-15 7.28755e-29 0.001415 
9956 1 0.047731 0.0274693 0.0137021 0 0 0 1.45526e-16 8.08221e-16 -0.220588 2.83239e-18 1.57305e-17 -0.000290849 6.53794e-15 -1.1772e-15 -5.33661e-29 0.001415 
6007 1 0.0347873 0.0296881 0.013472 0 0 0 2.15855e-16 2.41861e-16 -0.220588 4.09184e-18 4.5848e-18 -0.000290849 -2.84395e-15 2.53817e-15 4.361e-29 0.001415 
8774 1 0.0137081 0.0323084 0.0141456 0 0 0 -1.42479e-16 2.39787e-16 -0.220588 -2.65075e-18 4.46112e-18 -0.000290849 -3.47599e-15 -2.0654e-15 3.02077e-29 0.001415 
6215 1 -0.0229502 0.0331509 0.0127141 0 0 0 -1.40743e-18 -6.54395e-18 -0.220588 -6.48458e-20 -3.01505e-19 -0.000290849 6.29112e-15 -1.35306e-15 -4.40061e-29 0.001415 
3967 1 -0.0257836 0.0351781 0.0129256 0 0 0 -1.86859e-16 5.84584e-16 -0.220588 -1.90671e-18 5.96509e-18 -0.000290849 2.7334e-15 8.73718e-16 -6.78044e-29 0.001415 
7873 1 -0.0162209 0.0354611 0.0137953 0 0 0 3.13941e-16 3.71343e-16 -0.220588 5.89624e-18 6.97433e-18 -0.000290849 -6.31216e-15 5.33643e-15 8.65787e-29 0.001415 
6847 1 -0.0500743 0.0395872 0.013952 0 0 0 -7.96864e-16 3.43705e-16 -0.220588 -1.52036e-17 6.55763e-18 -0.000290849 9.04354e-15 2.0967e-14 -9.24774e-28 0.001415 
487 1 0.0121003 0.044013 0.0143984 0 0 0 4.80336e-16 -4.07133e-16 -0.220588 9.66401e-18 -8.19121e-18 -0.000290849 -2.71348e-15 -3.20138e-15 -5.47836e-29 0.001415 
9747 1 -0.0328934 0.0446643 0.0141687 0 0 0 1.26344e-16 -8.137e-16 -0.220588 2.46173e-18 -1.58544e-17 -0.000290849 -7.30834e-15 -1.13477e-15 -1.06299e-28 0.001415 
4638 1 0.00148191 0.0455993 0.0125805 0 0 0 4.00433e-18 -2.15616e-18 -0.220588 1.89332e-20 -1.01947e-20 -0.000290849 -6.62166e-16 -1.22975e-15 2.84148e-30 0.001415 
7348 1 0.0388741 0.0496065 0.0128126 0 0 0 -2.10305e-17 -3.55644e-16 -0.220588 -2.99421e-19 -5.06348e-18 -0.000290849 5.00485e-15 -2.95954e-16 -6.73272e-30 0.001415 
8315 1 0.0261215 0.0546907 0.014365 0 0 0 -8.01103e-16 3.31198e-16 -0.220588 -1.5473e-17 6.39696e-18 -0.000290849 2.22375e-15 5.3788e-15 7.74982e-28 0.001415 
4831 1 0.0293284 0.0560787 0.0129814 0 0 0 5.64165e-16 -3.13615e-16 -0.220588 6.5402e-18 -3.63564e-18 -0.000290849 -6.83705e-15 -1.22992e-14 -4.71178e-28 0.001415 
6909 1 0.00964204 0.0590336 0.0130155 0 0 0 8.17e-17 -4.92265e-17 -0.220588 1.41719e-18 -8.53895e-19 -0.000290849 8.33099e-15 1.38267e-14 -3.86607e-28 0.001415 
6047 1 -2.16486e-05 0.0672713 0.0137776 0 0 0 -8.01847e-16 -4.81848e-17 -0.220588 -1.54939e-17 -9.31063e-19 -0.000290849 -1.52337e-16 2.53506e-15 1.42077e-29 0.001415 
7455 1 0.00864732 0.0657086 0.013924 0 0 0 -3.38797e-17 8.03423e-16 -0.220588 -6.73952e-19 1.59821e-17 -0.000290849 1.64697e-15 6.94513e-17 -1.68281e-29 0.001415 
8757 1 0.00829498 0.0765507 0.0133704 0 0 0 0 0 -0.220588 0 0 -0.000290849 0 0 0 0.001415 
3316 1 0.00670592 -0.0734672 0.0157206 0 0 0 -8.23465e-16 2.6352e-16 -0.220588 -1.56009e-17 4.9925e-18 -0.000290849 -3.73491e-15 -1.16711e-14 -5.47109e-28 0.001415 
2499 1 0.0564696 -0.0568217 0.0158675 0 0 0 6.59995e-18 -1.51002e-17 -0.220588 9.10025e-20 -2.08207e-19 -0.000290849 -4.56673e-16 -1.99602e-16 -2.38554e-30 0.001415 
8902 1 0.00739974 -0.0547957 0.0144921 0 0 0 -9.6363e-17 8.13541e-16 -0.220588 -1.87868e-18 1.58607e-17 -0.000290849 5.35177e-15 6.33911e-16 -6.54662e-30 0.001415 
4054 1 -0.0359786 -0.0521436 0.0161541 0 0 0 0 0 -0.220588 0 0 -0.000290849 0 0 0 0.001415 
9216 1 -0.0331383 -0.0524344 0.0154582 0 0 0 1.86034e-16 -4.81543e-16 -0.220588 -1.27986e-19 3.31287e-19 -0.000290849 5.61067e-15 2.16756e-15 2.96352e-28 0.001415 
6409 1 -0.0196234 -0.0530749 0.0157407 0 0 0 -8.83473e-16 2.57567e-16 -0.220588 -1.6769e-17 4.88883e-18 -0.000290849 -1.7605e-15 -6.03863e-15 2.71927e-29 0.001415 
5038 1 0.0374074 -0.0521216 0.0155954 0 0 0 -7.44785e-16 -2.04503e-16 -0.220588 -1.1807e-17 -3.24196e-18 -0.000290849 1.91132e-15 -6.96087e-15 3.34661e-28 0.001415 
8292 1 0.0404079 -0.0427971 0.0157066 0 0 0 -3.39815e-16 8.05424e-16 -0.220588 -6.44942e-18 1.52863e-17 -0.000290849 -1.66583e-14 -7.02826e-15 4.85439e-28 0.001415 
163 1 0.0234703 -0.0405039 0.0154313 0 0 0 -2.19035e-17 -2.92358e-16 -0.220588 -2.74511e-19 -3.66404e-18 -0.000290849 -2.23857e-15 1.67714e-16 2.85374e-29 0.001415 
8783 1 0.00873888 -0.0402008 0.015938 0 0 0 -5.91317e-16 -2.69755e-16 -0.220588 -1.18041e-17 -5.38496e-18 -0.000290849 4.43364e-15 -9.71876e-15 -1.80221e-28 0.001415 
1766 1 -0.00794199 -0.0335305 0.0159534 0 0 0 -6.39078e-16 1.99992e-16 -0.220588 -1.27706e-17 3.99641e-18 -0.000290849 -5.06042e-15 -1.61707e-14 7.37031e-29 0.001415 
7142 1 -0.0430179 -0.0310366 0.014916 0 0 0 -5.36215e-16 5.32247e-16 -0.220588 -1.05547e-17 1.04766e-17 -0.000290849 7.84807e-15 7.90659e-15 -4.15777e-29 0.001415 
6549 1 -0.00774795 -0.0294214 0.0148841 0 0 0 3.76071e-16 -6.09523e-17 -0.220588 6.9621e-18 -1.12839e-18 -0.000290849 6.13809e-16 3.78715e-15 1.22277e-29 0.001415 
1112 1 0.0563793 -0.0257718 0.0156336 0 0 0 -7.53001e-16 -3.86324e-16 -0.220588 -1.47451e-17 -7.56493e-18 -0.000290849 3.95563e-15 -7.7101e-15 -4.40111e-29 0.001415 