ITEM: TIMESTEP
235000
ITEM: NUMBER OF ATOMS
10248
ITEM: BOX BOUNDS ff ff ff
-0.2 0.2
-0.2 0.2
-0.01 0.5
ITEM: ATOMS id type x y z ix iy iz vx vy vz fx fy fz omegax omegay omegaz radius 
168 1 0.0237191 -0.0371834 0.00142307 0 0 0 0.0326138 0.435314 -0.00302197 -4.32831e-08 -5.77723e-07 -0.000291046 -307.727 23.055 2.9276e-12 0.001415 
5124 1 -0.00943529 -0.0647942 0.00195742 0 0 0 -5.50594e-17 -1.93808e-17 -0.246075 -2.44602e-18 -8.60992e-19 -0.000290814 4.72468e-16 -1.34225e-15 -7.32583e-31 0.001415 
9891 1 -0.0536741 -0.00562861 0.00184189 0 0 0 3.26978e-17 -4.08391e-17 -0.246075 1.7003e-18 -2.12364e-18 -0.000290814 1.48599e-15 1.18976e-15 -4.59963e-30 0.001415 
8778 1 0.0127785 0.033873 0.0023662 0 0 0 -2.35246e-17 3.9591e-17 -0.246075 -1.05773e-18 1.78011e-18 -0.000290814 -8.5673e-16 -5.09061e-16 1.4377e-30 0.001415 
5123 1 -0.00890863 -0.0646088 0.00473179 0 0 0 5.41231e-17 1.90512e-17 -0.246075 2.44602e-18 8.60993e-19 -0.000290814 4.71019e-16 -1.33813e-15 -7.29779e-31 0.001415 
167 1 0.0236622 -0.0379423 0.0042125 0 0 0 0.0225714 0.301273 0.00418315 -2.40878e-08 -3.21514e-07 -0.000291054 400.651 -30.0168 1.6187e-11 0.001415 
5439 1 0.0255064 -0.015295 0.00423476 0 0 0 6.69696e-19 -1.27252e-18 -0.246075 -6.42057e-25 1.22e-24 -0.000290814 -5.23839e-18 -2.75683e-18 2.22069e-33 0.001415 
9890 1 -0.0540531 -0.00515523 0.00460615 0 0 0 -3.17859e-17 3.97001e-17 -0.246075 -1.7003e-18 2.12364e-18 -0.000290814 1.47998e-15 1.18495e-15 -4.59995e-30 0.001415 
5818 1 0.0744051 0.00953964 0.00490169 0 0 0 2.36844e-19 -2.27646e-19 -0.246075 -2.27069e-25 2.18251e-25 -0.000290814 -2.53151e-19 -2.63379e-19 -1.71761e-34 0.001415 
4096 1 0.0493328 0.0413049 0.00378677 0 0 0 4.04984e-16 -1.37703e-16 -0.246075 2.28676e-17 -7.77548e-18 -0.000290814 -1.68995e-15 -4.97011e-15 -7.21337e-30 0.001415 
4641 1 -0.00200478 0.0474767 0.00446396 0 0 0 -2.10626e-18 1.13413e-18 -0.246075 2.01933e-24 -1.08732e-24 -0.000290814 5.34792e-18 9.93194e-18 -2.46502e-33 0.001415 
166 1 0.0235588 -0.0393231 0.00684486 0 0 0 -0.0114049 -0.152228 -0.0716479 9.22588e-09 1.23143e-07 -0.000290992 -76.3116 5.71727 -1.31797e-11 0.001415 
8779 1 0.0136066 -0.0379801 0.00535555 0 0 0 3.6532e-19 1.66657e-19 -0.246075 -3.50243e-25 -1.59779e-25 -0.000290814 1.61587e-17 -3.54206e-17 1.80019e-31 0.001415 
6552 1 -0.00600865 -0.0297033 0.00597231 0 0 0 1.99932e-18 -3.24042e-19 -0.246075 2.27762e-19 -3.69149e-20 -0.000290814 7.18935e-18 4.43578e-17 -7.59163e-32 0.001415 
1407 1 0.0135434 -0.0200891 0.00666365 0 0 0 -1.7308e-18 -5.06349e-19 -0.246075 -1.99716e-19 -5.84273e-20 -0.000290814 -3.84716e-18 1.31504e-17 2.36765e-33 0.001415 
8589 1 -0.0402517 -0.0187189 0.00677061 0 0 0 2.04022e-19 -2.69438e-18 -0.246075 2.76019e-20 -3.6452e-19 -0.000290814 -2.60538e-16 -1.97282e-17 -4.91234e-30 0.001415 
5438 1 0.0249608 -0.0142584 0.00681094 0 0 0 8.74332e-16 -1.66136e-15 -0.246075 1.74989e-17 -3.32505e-17 -0.000290814 -3.5685e-14 -1.87801e-14 -2.55466e-28 0.001415 
2100 1 -0.012979 -0.0106864 0.00687826 0 0 0 2.13089e-15 3.86627e-16 -0.246075 4.50773e-17 8.17879e-18 -0.000290814 1.71141e-16 -9.43244e-16 5.85379e-28 0.001415 
4516 1 0.00201022 -0.00437069 0.00539224 0 0 0 -1.79079e-18 2.13784e-18 -0.246075 1.71688e-24 -2.04961e-24 -0.000290814 1.56445e-17 1.31048e-17 -1.84134e-31 0.001415 
6447 1 -0.0515136 0.0117203 0.00521463 0 0 0 -1.27925e-18 1.55842e-18 -0.246075 1.22645e-24 -1.49411e-24 -0.000290814 3.38226e-18 2.77636e-18 -3.23411e-32 0.001415 
4347 1 0.0446345 0.0124385 0.0059714 0 0 0 -1.89313e-18 -6.65398e-19 -0.246075 -2.15853e-19 -7.5868e-20 -0.000290814 2.61911e-17 -7.45166e-17 -5.58012e-31 0.001415 
9996 1 -0.0293411 0.0177597 0.00592606 0 0 0 -4.44262e-18 -4.24402e-18 -0.246075 -4.80106e-19 -4.58644e-19 -0.000290814 -7.15157e-17 7.48623e-17 2.78353e-31 0.001415 
1281 1 -0.00910888 0.0220965 0.00634064 0 0 0 -1.79552e-18 -6.65114e-19 -0.246075 -2.17292e-19 -8.04912e-20 -0.000290814 -6.71592e-18 1.81301e-17 2.18571e-32 0.001415 
4221 1 0.00751144 0.0235905 0.00528449 0 0 0 6.82595e-20 -5.04482e-19 -0.246075 -6.54424e-26 4.83662e-25 -0.000290814 2.47611e-17 3.35032e-18 -8.0938e-32 0.001415 
3550 1 0.0375782 0.0284832 0.00603955 0 0 0 -3.28483e-18 1.92166e-17 -0.246075 -2.64139e-19 1.54524e-18 -0.000290814 1.17826e-16 2.01409e-17 -5.83992e-31 0.001415 
2814 1 0.0624335 0.0274639 0.00534241 0 0 0 3.73043e-19 1.89279e-18 -0.246075 4.02815e-20 2.04385e-19 -0.000290814 -8.05173e-17 1.58689e-17 2.51839e-31 0.001415 
8777 1 0.0130109 0.0334818 0.00515938 0 0 0 2.29734e-17 -3.86634e-17 -0.246075 9.78442e-19 -1.64668e-18 -0.000290814 -8.80317e-16 -5.23076e-16 1.38361e-30 0.001415 
484 1 0.0153265 0.0412785 0.00643006 0 0 0 7.68882e-18 -6.51704e-18 -0.246075 7.16751e-19 -6.07517e-19 -0.000290814 -1.42877e-16 -1.68567e-16 -2.35249e-32 0.001415 
4097 1 0.0483957 0.0416236 0.00643806 0 0 0 -4.00093e-16 1.3604e-16 -0.246075 -2.21268e-17 7.5236e-18 -0.000290814 -1.5341e-15 -4.51176e-15 -1.11683e-29 0.001415 
4640 1 -0.000842548 0.0468509 0.00696726 0 0 0 -2.03853e-15 1.09766e-15 -0.246075 -3.85444e-17 2.07545e-17 -0.000290814 1.24154e-14 2.30574e-14 -1.53724e-27 0.001415 
7350 1 0.0388042 0.0484249 0.00667113 0 0 0 -1.63919e-20 -2.77203e-19 -0.246075 -1.53027e-21 -2.58782e-20 -0.000290814 -3.88704e-17 2.29854e-18 8.67372e-32 0.001415 
5122 1 -0.00838197 -0.0644234 0.00750617 0 0 0 -3.46572e-16 -1.21992e-16 -0.246075 -1.07413e-17 -3.78089e-18 -0.000290814 -7.97135e-16 2.26461e-15 -9.42567e-29 0.001415 
9219 1 -0.0350531 -0.0474779 0.00822979 0 0 0 0 0 -0.246075 0 0 -0.000290814 0 0 0 0.001415 
8295 1 0.0424827 -0.0477148 0.0084975 0 0 0 0 0 -0.246075 0 0 -0.000290814 0 0 0 0.001415 
8780 1 0.0123897 -0.0385353 0.0078495 0 0 0 4.56948e-17 2.08457e-17 -0.246075 2.8002e-19 1.27743e-19 -0.000290814 -3.61811e-15 7.93107e-15 -1.68727e-29 0.001415 
6551 1 -0.00658842 -0.0296093 0.0087407 0 0 0 5.71295e-18 -9.25934e-19 -0.246075 -1.78004e-19 2.88502e-20 -0.000290814 -1.92397e-16 -1.18708e-15 9.08532e-31 0.001415 
9889 1 -0.0544321 -0.00468185 0.00737042 0 0 0 3.77437e-16 -4.71413e-16 -0.246075 1.04144e-17 -1.30074e-17 -0.000290814 -1.57948e-15 -1.26461e-15 1.44118e-29 0.001415 
4517 1 0.00302288 -0.0055796 0.00774212 0 0 0 5.92421e-19 -7.07231e-19 -0.246075 -3.748e-19 4.47436e-19 -0.000290814 3.40119e-17 2.84905e-17 -2.30339e-31 0.001415 
3528 1 0.0516347 -0.000942708 0.00882211 0 0 0 -2.80605e-17 -1.27619e-17 -0.246075 -1.55982e-19 -7.09406e-20 -0.000290814 -2.09048e-15 4.59649e-15 -2.96416e-29 0.001415 
7477 1 0.00556963 0.00632744 0.00761102 0 0 0 -9.12316e-17 9.25145e-17 -0.246075 -5.44091e-18 5.51742e-18 -0.000290814 -6.0581e-16 -5.97409e-16 2.44583e-29 0.001415 
6446 1 -0.0505093 0.0104969 0.00756058 0 0 0 -4.64394e-17 5.65741e-17 -0.246075 -3.16988e-18 3.86166e-18 -0.000290814 -6.09436e-16 -5.00262e-16 -1.14861e-30 0.001415 
5819 1 0.0733204 0.0105822 0.00729863 0 0 0 5.33878e-16 -5.13146e-16 -0.246075 1.6753e-17 -1.61024e-17 -0.000290814 3.01824e-15 3.14018e-15 1.10375e-28 0.001415 
4368 1 0.0417993 0.0124877 0.00783943 0 0 0 0 0 -0.246075 0 0 -0.000290814 0 0 0 0.001415 
4346 1 0.0459771 0.0129104 0.00841757 0 0 0 -1.66167e-17 -5.84045e-18 -0.246075 9.06883e-20 3.18751e-20 -0.000290814 -5.98796e-16 1.70364e-15 6.3831e-30 0.001415 
9995 1 -0.0283179 0.0187371 0.00837691 0 0 0 4.44262e-18 4.24402e-18 -0.246075 4.80106e-19 4.58644e-19 -0.000290814 -7.15157e-17 7.48623e-17 2.78353e-31 0.001415 
4220 1 0.00732219 0.0249892 0.0077374 0 0 0 2.97105e-18 -2.1958e-17 -0.246075 1.01949e-19 -7.53468e-19 -0.000290814 -4.11964e-15 -5.57413e-16 1.54217e-30 0.001415 
2813 1 0.0621842 0.0261988 0.0078616 0 0 0 2.55134e-18 1.29453e-17 -0.246075 -1.73155e-20 -8.78576e-20 -0.000290814 4.43067e-15 -8.73224e-16 -1.32137e-29 0.001415 
3551 1 0.0378271 0.027027 0.00845331 0 0 0 3.28483e-18 -1.92166e-17 -0.246075 2.64139e-19 -1.54524e-18 -0.000290814 1.17826e-16 2.01409e-17 -5.83992e-31 0.001415 
8776 1 0.0132433 0.0330907 0.00795257 0 0 0 -1.30494e-18 2.19616e-18 -0.246075 6.28202e-20 -1.05724e-19 -0.000290814 1.11879e-15 6.64771e-16 2.65813e-30 0.001415 
3969 1 -0.0266131 0.0377733 0.00735788 0 0 0 -3.11259e-16 9.73763e-16 -0.246075 -8.6198e-18 2.69668e-17 -0.000290814 -5.93853e-15 -1.89822e-15 -2.15072e-29 0.001415 
7875 1 -0.0151895 0.0366812 0.00775881 0 0 0 7.32121e-18 8.65984e-18 -0.246075 1.62553e-19 1.92275e-19 -0.000290814 1.72265e-15 -1.45637e-15 7.76885e-30 0.001415 
485 1 0.0142511 0.04219 0.00888395 0 0 0 -7.68882e-18 6.51704e-18 -0.246075 -7.16751e-19 6.07517e-19 -0.000290814 -1.42877e-16 -1.68567e-16 -2.35249e-32 0.001415 
5121 1 -0.0078553 -0.064238 0.0102805 0 0 0 2.87294e-16 1.01127e-16 -0.246075 9.59889e-18 3.37878e-18 -0.000290814 -1.3141e-15 3.73327e-15 3.76658e-28 0.001415 
6406 1 -0.013834 -0.0547628 0.0091579 0 0 0 2.5226e-17 -7.35435e-18 -0.246075 1.41614e-19 -4.1286e-20 -0.000290814 -1.05244e-15 -3.60995e-15 1.72912e-29 0.001415 
4747 1 -0.048396 -0.0516837 0.00994667 0 0 0 -7.59865e-17 1.11101e-17 -0.246075 -4.38637e-19 6.41337e-20 -0.000290814 5.0651e-16 3.46423e-15 1.03311e-29 0.001415 
8904 1 0.00698378 -0.051284 0.00946605 0 0 0 0 0 -0.246075 0 0 -0.000290814 0 0 0 0.001415 
9218 1 -0.0344149 -0.0491301 0.010437 0 0 0 -2.38859e-17 6.18278e-17 -0.246075 -2.3481e-19 6.07799e-19 -0.000290814 -1.42987e-14 -5.524e-15 -1.50302e-28 0.001415 
8294 1 0.0417911 -0.0460756 0.0106983 0 0 0 0 0 -0.246075 0 0 -0.000290814 0 0 0 0.001415 
8781 1 0.0111727 -0.0390904 0.0103434 0 0 0 4.18398e-18 1.90871e-18 -0.246075 6.73892e-19 3.07425e-19 -0.000290814 -7.16913e-15 1.57151e-14 9.02378e-29 0.001415 
165 1 0.0235388 -0.0395897 0.00971052 0 0 0 -0.00268459 -0.0358327 -0.026969 1.52932e-09 2.04127e-08 -0.000291034 -10.1218 0.758324 -1.93308e-11 0.001415 
9787 1 -0.0202299 -0.023698 0.00955585 0 0 0 -1.19185e-17 -1.48202e-17 -0.246075 -8.86749e-20 -1.10264e-19 -0.000290814 -5.4683e-16 4.39762e-16 -9.06475e-29 0.001415 
1406 1 0.0148736 -0.0197 0.00913107 0 0 0 1.7308e-18 5.06349e-19 -0.246075 1.99716e-19 5.84273e-20 -0.000290814 -3.84716e-18 1.31504e-17 2.36765e-33 0.001415 
8588 1 -0.0403296 -0.0176897 0.00940568 0 0 0 1.29457e-17 -1.70966e-16 -0.246075 1.07006e-19 -1.41316e-18 -0.000290814 3.15895e-14 2.39199e-15 1.83072e-28 0.001415 
4389 1 -0.00210167 -0.0164576 0.0105401 0 0 0 3.88034e-17 -1.89162e-17 -0.246075 6.20374e-19 -3.02425e-19 -0.000290814 -2.0432e-16 -4.19129e-16 -6.45047e-29 0.001415 
8820 1 0.00980992 -0.0172644 0.00973347 0 0 0 0 0 -0.246075 0 0 -0.000290814 0 0 0 0.001415 
3529 1 0.0670132 -0.0166749 0.0100335 0 0 0 9.21141e-18 1.13134e-17 -0.246075 6.10558e-19 7.49886e-19 -0.000290814 -3.43899e-16 2.80003e-16 -8.39453e-29 0.001415 
4473 1 -0.0215554 -0.0144106 0.00951015 0 0 0 0 0 -0.246075 0 0 -0.000290814 0 0 0 0.001415 
5437 1 0.0244153 -0.0132218 0.00938712 0 0 0 -8.17624e-16 1.55361e-15 -0.246075 -1.62938e-17 3.09606e-17 -0.000290814 -2.0586e-14 -1.08339e-14 -2.34672e-29 0.001415 
2099 1 -0.0146787 -0.0109948 0.00911984 0 0 0 -2.05156e-15 -3.72232e-16 -0.246075 -4.28211e-17 -7.76943e-18 -0.000290814 6.06096e-16 -3.34049e-15 3.11884e-28 0.001415 
4518 1 0.00403554 -0.00678852 0.010092 0 0 0 -6.08427e-17 7.26339e-17 -0.246075 -2.08464e-19 2.48864e-19 -0.000290814 -2.57049e-14 -2.1532e-14 -1.12728e-27 0.001415 
9888 1 -0.0548111 -0.00420847 0.0101347 0 0 0 -3.39669e-16 4.24241e-16 -0.246075 -9.52376e-18 1.1895e-17 -0.000290814 -1.36025e-15 -1.08909e-15 -5.047e-29 0.001415 
2457 1 0.0227749 0.00368251 0.00914509 0 0 0 -2.60204e-20 1.63635e-20 -0.246075 -2.3611e-19 1.48483e-19 -0.000290814 -2.64814e-18 -4.21093e-18 1.26607e-31 0.001415 
1470 1 -0.0541433 0.00552442 0.0103822 0 0 0 7.40431e-17 7.13519e-17 -0.246075 6.99538e-19 6.74112e-19 -0.000290814 -2.87087e-14 2.97915e-14 -1.01365e-29 0.001415 
7478 1 0.0063252 0.00556124 0.0102285 0 0 0 6.21358e-17 -6.30096e-17 -0.246075 4.86034e-18 -4.92868e-18 -0.000290814 -1.34127e-15 -1.32267e-15 -3.55846e-28 0.001415 
5545 1 -0.0302182 0.00727945 0.0105226 0 0 0 0 0 -0.246075 0 0 -0.000290814 0 0 0 0.001415 
6445 1 -0.0495051 0.00927345 0.00990654 0 0 0 3.92259e-17 -4.77864e-17 -0.246075 3.07574e-18 -3.74698e-18 -0.000290814 1.48064e-15 1.2154e-15 2.99088e-29 0.001415 
4431 1 -0.0620527 0.012605 0.00990107 0 0 0 -9.71867e-17 2.07613e-17 -0.246075 -8.84613e-19 1.88973e-19 -0.000290814 -6.15268e-15 -2.88017e-14 8.25507e-29 0.001415 
4367 1 0.0426483 0.0117219 0.0104282 0 0 0 -6.65712e-17 6.00521e-17 -0.246075 -8.4978e-19 7.66563e-19 -0.000290814 -6.21489e-15 -6.88956e-15 -4.58506e-28 0.001415 
4345 1 0.0473197 0.0133822 0.0108637 0 0 0 -3.34688e-17 -1.17636e-17 -0.246075 -8.40791e-19 -2.95521e-19 -0.000290814 2.79725e-15 -7.95848e-15 -4.75192e-28 0.001415 
5820 1 0.0722357 0.0116248 0.00969557 0 0 0 -5.12822e-16 4.92907e-16 -0.246075 -1.61528e-17 1.55255e-17 -0.000290814 1.31142e-15 1.36441e-15 1.3146e-30 0.001415 
9994 1 -0.0272948 0.0197145 0.0108278 0 0 0 -9.79479e-17 -9.35693e-17 -0.246075 -9.02095e-19 -8.61769e-19 -0.000290814 2.07129e-14 -2.16822e-14 -9.35162e-28 0.001415 
1280 1 -0.00826091 0.0224106 0.00902228 0 0 0 1.79552e-18 6.65114e-19 -0.246075 2.17292e-19 8.04912e-20 -0.000290814 -6.71592e-18 1.81301e-17 2.18571e-32 0.001415 
2812 1 0.0619348 0.0249338 0.0103808 0 0 0 1.87823e-17 9.52998e-17 -0.246075 2.33455e-19 1.18453e-18 -0.000290814 -1.00363e-14 1.97803e-15 1.63249e-28 0.001415 
4219 1 0.00713294 0.0263879 0.0101903 0 0 0 1.2267e-17 -9.06608e-17 -0.246075 1.03569e-19 -7.65438e-19 -0.000290814 2.40529e-14 3.25451e-15 1.99942e-28 0.001415 
3552 1 0.038076 0.0255707 0.0108671 0 0 0 -1.24869e-17 7.30497e-17 -0.246075 -1.32728e-19 7.76472e-19 -0.000290814 -1.676e-14 -2.86492e-15 4.06644e-28 0.001415 
6216 1 -0.023401 0.0310553 0.0102598 0 0 0 -4.54048e-18 -2.11112e-17 -0.246075 -2.89803e-20 -1.34746e-19 -0.000290814 -2.78088e-15 5.98096e-16 1.39186e-29 0.001415 
8775 1 0.0134757 0.0326995 0.0107458 0 0 0 -1.46964e-17 2.47334e-17 -0.246075 -2.39219e-19 4.02596e-19 -0.000290814 8.98319e-16 5.33772e-16 -3.73611e-29 0.001415 
3968 1 -0.0261983 0.0364757 0.00983842 0 0 0 3.11259e-16 -9.73763e-16 -0.246075 8.6198e-18 -2.69668e-17 -0.000290814 -5.93853e-15 -1.89822e-15 -2.15072e-29 0.001415 
7874 1 -0.0157052 0.0360712 0.0104737 0 0 0 2.06706e-17 2.44501e-17 -0.246075 4.08627e-19 4.83342e-19 -0.000290814 2.35685e-15 -1.99253e-15 -2.37873e-28 0.001415 
9745 1 -0.0323504 0.0411674 0.00914472 0 0 0 0 0 -0.246075 0 0 -0.000290814 0 0 0 0.001415 
4098 1 0.0474587 0.0419422 0.00908934 0 0 0 1.71231e-18 -5.82223e-19 -0.246075 -6.82642e-19 2.32113e-19 -0.000290814 2.94113e-16 8.64983e-16 2.32107e-30 0.001415 
4639 1 0.000319678 0.0462251 0.00947056 0 0 0 1.94238e-15 -1.04588e-15 -0.246075 3.61972e-17 -1.94906e-17 -0.000290814 1.28322e-14 2.38314e-14 -1.09441e-27 0.001415 
7349 1 0.0388392 0.0490157 0.00943855 0 0 0 -3.44233e-18 -5.8213e-17 -0.246075 -4.49123e-20 -7.59508e-19 -0.000290814 7.30048e-15 -4.31702e-16 -6.75068e-29 0.001415 
6048 1 -0.0014895 0.0671831 0.010753 0 0 0 -1.17514e-16 -7.0617e-18 -0.246075 -1.47053e-18 -8.83671e-20 -0.000290814 1.36467e-15 -2.27097e-14 -1.85761e-28 0.001415 
3318 1 0.0108764 -0.0748018 0.0115277 0 0 0 0 0 -0.246075 0 0 -0.000290814 0 0 0 0.001415 
6407 1 -0.0157638 -0.0542001 0.01115 0 0 0 -2.5226e-17 7.35435e-18 -0.246075 -1.41614e-19 4.1286e-20 -0.000290814 -1.05244e-15 -3.60995e-15 1.72912e-29 0.001415 
4748 1 -0.0463698 -0.05198 0.0119001 0 0 0 -1.73551e-17 2.53751e-18 -0.246075 -4.19721e-19 6.1368e-20 -0.000290814 -6.59865e-15 -4.51309e-14 2.49999e-28 0.001415 
8903 1 0.00719176 -0.0530399 0.0116757 0 0 0 -1.10367e-17 9.3177e-17 -0.246075 -1.03075e-19 8.70206e-19 -0.000290814 -2.60487e-14 -3.08544e-15 3.29038e-28 0.001415 
9217 1 -0.0337766 -0.0507822 0.0126443 0 0 0 -3.75162e-16 9.71095e-16 -0.246075 -1.23609e-18 3.19958e-18 -0.000290814 4.87543e-15 1.88352e-15 1.65216e-27 0.001415 
8421 1 -0.0125515 -0.050364 0.0113532 0 0 0 1.50831e-17 -4.02749e-17 -0.246075 3.1382e-19 -8.37964e-19 -0.000290814 5.08605e-15 1.90474e-15 -1.24579e-27 0.001415 
5040 1 0.0412118 -0.051077 0.0109303 0 0 0 0 0 -0.246075 0 0 -0.000290814 0 0 0 0.001415 
164 1 0.0235015 -0.0400874 0.0125311 0 0 0 -0.0027548 -0.0367699 -0.00577003 1.52879e-09 2.04056e-08 -0.000291046 8.21574 -0.615525 -1.82187e-11 0.001415 
7141 1 -0.0440609 -0.0300013 0.0118908 0 0 0 -4.79666e-20 4.76115e-20 -0.246075 -4.35187e-19 4.31966e-19 -0.000290814 -8.36447e-18 -8.42684e-18 -4.38271e-31 0.001415 
6550 1 -0.00716818 -0.0295154 0.0115091 0 0 0 2.04709e-18 -3.31785e-19 -0.246075 4.84238e-19 -7.84836e-20 -0.000290814 -2.75015e-16 -1.69682e-15 -3.79522e-29 0.001415 
1113 1 0.057839 -0.0250229 0.012721 0 0 0 1.86285e-15 9.55728e-16 -0.246075 9.25563e-18 4.74856e-18 -0.000290814 1.96424e-14 -3.8286e-14 3.20676e-28 0.001415 
9788 1 -0.0191042 -0.0222982 0.0117427 0 0 0 -5.66566e-17 -7.04507e-17 -0.246075 -6.47418e-19 -8.05044e-19 -0.000290814 2.30587e-14 -1.85438e-14 1.55453e-27 0.001415 
1405 1 0.0162037 -0.0193109 0.0115985 0 0 0 -1.34765e-16 -3.94258e-17 -0.246075 -1.4725e-18 -4.30783e-19 -0.000290814 7.74308e-15 -2.64674e-14 -7.97009e-28 0.001415 
8819 1 0.00974619 -0.0192248 0.0117735 0 0 0 4.51633e-18 1.38908e-16 -0.246075 3.82362e-20 1.17603e-18 -0.000290814 -3.01243e-14 9.79433e-16 -2.83645e-28 0.001415 
3530 1 0.0663652 -0.0174708 0.0126708 0 0 0 8.57564e-16 1.05326e-15 -0.246075 3.79372e-19 4.65944e-19 -0.000290814 7.44603e-15 -6.06256e-15 7.42155e-28 0.001415 
8587 1 -0.0404076 -0.0166605 0.0120408 0 0 0 6.74702e-17 -8.91035e-16 -0.246075 1.5167e-19 -2.00301e-18 -0.000290814 -1.65687e-14 -1.2546e-15 -2.30839e-29 0.001415 
4472 1 -0.0211077 -0.0159411 0.0118481 0 0 0 -4.59951e-17 1.57224e-16 -0.246075 -3.67733e-19 1.25701e-18 -0.000290814 -3.9434e-14 -1.15362e-14 -5.74026e-28 0.001415 
5436 1 0.0238697 -0.0121851 0.0119633 0 0 0 -7.45843e-18 1.41721e-17 -0.246075 -5.92662e-19 1.12615e-18 -0.000290814 2.14788e-14 1.13037e-14 2.06584e-28 0.001415 
2098 1 -0.0163785 -0.0113032 0.0113614 0 0 0 -7.93329e-17 -1.43941e-17 -0.246075 -2.25617e-18 -4.09358e-19 -0.000290814 4.34955e-16 -2.39725e-15 -2.73496e-28 0.001415 
4519 1 0.0050482 -0.00799743 0.0124419 0 0 0 -6.18947e-16 7.38898e-16 -0.246075 -2.19994e-18 2.62629e-18 -0.000290814 4.15471e-15 3.48025e-15 1.68909e-27 0.001415 
3527 1 0.053278 -0.000195356 0.0110016 0 0 0 2.80605e-17 1.27619e-17 -0.246075 1.55982e-19 7.09406e-20 -0.000290814 -2.09048e-15 4.59649e-15 -2.96416e-29 0.001415 
4852 1 -0.0576017 0.00160357 0.0117625 0 0 0 4.848e-17 7.95455e-17 -0.246075 4.4875e-19 7.36304e-19 -0.000290814 -1.59109e-14 9.69709e-15 8.5445e-28 0.001415 
9744 1 -0.0476714 0.00124731 0.0126832 0 0 0 3.01311e-17 3.43218e-17 -0.246075 2.95749e-19 3.36883e-19 -0.000290814 -1.59857e-14 1.40338e-14 1.00584e-27 0.001415 
2456 1 0.0231999 0.00341526 0.0119302 0 0 0 -3.75151e-16 2.35923e-16 -0.246075 -8.84679e-19 5.56351e-19 -0.000290814 5.8701e-15 9.33432e-15 -3.44897e-28 0.001415 
1469 1 -0.0554428 0.00427207 0.012562 0 0 0 7.89959e-16 7.61247e-16 -0.246075 2.73474e-18 2.63535e-18 -0.000290814 1.91484e-14 -1.98707e-14 6.45544e-29 0.001415 
6444 1 -0.0485008 0.00805 0.0122525 0 0 0 -7.63908e-17 9.30619e-17 -0.246075 -7.23427e-19 8.81303e-19 -0.000290814 -2.17948e-14 -1.78904e-14 -1.54324e-27 0.001415 
5546 1 -0.0286421 0.00814112 0.0127094 0 0 0 -1.42697e-15 -7.80144e-16 -0.246075 -5.87185e-18 -3.21023e-18 -0.000290814 -3.4379e-14 6.28829e-14 -4.09658e-27 0.001415 
7897 1 0.0202104 0.0106666 0.0121053 0 0 0 2.44411e-17 1.16501e-16 -0.246075 2.16312e-19 1.03107e-18 -0.000290814 -3.75926e-14 7.88667e-15 1.89793e-29 0.001415 
4430 1 -0.0607358 0.0123237 0.0123902 0 0 0 -8.97679e-16 1.91764e-16 -0.246075 -2.92582e-18 6.25021e-19 -0.000290814 1.9526e-15 9.14042e-15 -1.19171e-28 0.001415 
5821 1 0.071151 0.0126674 0.0120925 0 0 0 -2.12931e-17 2.04662e-17 -0.246075 -6.00189e-19 5.76882e-19 -0.000290814 -1.70707e-15 -1.77604e-15 -1.0906e-28 0.001415 
1279 1 -0.00741294 0.0227247 0.0117039 0 0 0 -1.04179e-16 -3.8591e-17 -0.246075 -1.30711e-18 -4.84193e-19 -0.000290814 -2.00659e-17 5.41692e-17 -1.95359e-28 0.001415 
4218 1 0.00694369 0.0277865 0.0126432 0 0 0 1.67529e-16 -1.23815e-15 -0.246075 2.34503e-19 -1.73313e-18 -0.000290814 -4.8779e-14 -6.6001e-15 3.52947e-28 0.001415 
9955 1 0.0480973 0.0295036 0.0111624 0 0 0 1.82599e-20 1.01412e-19 -0.246075 1.65711e-19 9.20321e-19 -0.000290814 -1.00383e-17 1.80746e-18 -1.15142e-30 0.001415 
6215 1 -0.0229502 0.0331509 0.0121075 0 0 0 -1.19626e-17 -5.56209e-17 -0.246075 -1.29858e-19 -6.03784e-19 -0.000290814 3.6913e-14 -7.93902e-15 -2.90193e-28 0.001415 
3967 1 -0.0257836 0.0351781 0.012319 0 0 0 -3.2843e-16 1.02748e-15 -0.246075 -1.24837e-18 3.90547e-18 -0.000290814 2.08892e-14 6.67714e-15 -1.3236e-27 0.001415 
4099 1 0.0465216 0.0422608 0.0117406 0 0 0 3.00196e-17 -1.02073e-17 -0.246075 8.08839e-19 -2.75023e-19 -0.000290814 -7.19911e-16 -2.11725e-15 -4.55579e-28 0.001415 
9746 1 -0.0326219 0.0429159 0.0113534 0 0 0 1.63519e-17 -1.05312e-16 -0.246075 1.49346e-19 -9.61842e-19 -0.000290814 2.84325e-14 4.41473e-15 -5.69201e-28 0.001415 
486 1 0.0131757 0.0431015 0.0113378 0 0 0 1.16414e-16 -9.86726e-17 -0.246075 9.82692e-19 -8.32929e-19 -0.000290814 2.47601e-14 2.9212e-14 -3.91354e-28 0.001415 
4638 1 0.00148191 0.0455993 0.0119739 0 0 0 2.81148e-17 -1.51386e-17 -0.246075 1.35996e-18 -7.32277e-19 -0.000290814 -7.06912e-15 -1.31285e-14 9.72729e-28 0.001415 
7348 1 0.0388741 0.0496065 0.012206 0 0 0 -3.98506e-17 -6.73909e-16 -0.246075 -1.20262e-19 -2.03374e-18 -0.000290814 3.34688e-15 -1.97913e-16 3.72631e-29 0.001415 
8316 1 0.0241447 0.055508 0.0119054 0 0 0 0 0 -0.246075 0 0 -0.000290814 0 0 0 0.001415 
4831 1 0.0293284 0.0560787 0.0123748 0 0 0 1.04514e-15 -5.80987e-16 -0.246075 4.15177e-18 -2.30794e-18 -0.000290814 -2.49375e-14 -4.48604e-14 6.10619e-29 0.001415 
6909 1 0.00964204 0.0590336 0.0124089 0 0 0 2.33662e-16 -1.40788e-16 -0.246075 1.70818e-18 -1.02923e-18 -0.000290814 4.08824e-14 6.78517e-14 -9.68074e-28 0.001415 
8757 1 0.00829498 0.0765507 0.0127638 0 0 0 0 0 -0.246075 0 0 -0.000290814 0 0 0 0.001415 
3317 1 0.00879117 -0.0741345 0.0133208 0 0 0 1.2946e-15 -4.1429e-16 -0.246075 1.69639e-18 -5.4287e-19 -0.000290814 -2.52723e-14 -7.89724e-14 -1.9583e-27 0.001415 
4537 1 0.0348065 -0.0668743 0.0132987 0 0 0 4.56657e-16 -8.89309e-16 -0.246075 -4.37811e-22 8.52607e-22 -0.000290814 9.44164e-15 4.84825e-15 -4.63237e-29 0.001415 
5120 1 -0.00732864 -0.0640527 0.0130549 0 0 0 -5.16614e-16 -1.81846e-16 -0.246075 1.14292e-18 4.02306e-19 -0.000290814 2.40291e-15 -6.82652e-15 5.19201e-28 0.001415 
8902 1 0.00739974 -0.0547957 0.0138854 0 0 0 -1.69019e-16 1.42694e-15 -0.246075 1.03248e-19 -8.71664e-19 -0.000290814 1.09521e-14 1.29726e-15 1.99506e-28 0.001415 
4749 1 -0.0443437 -0.0522762 0.0138535 0 0 0 -1.09158e-15 1.59601e-16 -0.246075 8.59494e-19 -1.25668e-19 -0.000290814 2.06792e-15 1.41433e-14 2.48918e-29 0.001415 
6408 1 -0.0176936 -0.0536375 0.013142 0 0 0 3.01475e-15 -8.78917e-16 -0.246075 2.01908e-17 -5.8864e-18 -0.000290814 -3.53336e-14 -1.21197e-13 -4.43131e-27 0.001415 
5039 1 0.0393096 -0.0515993 0.0129595 0 0 0 1.84153e-15 5.05647e-16 -0.246075 8.71058e-18 2.39175e-18 -0.000290814 1.81366e-14 -6.6052e-14 2.77289e-27 0.001415 
8420 1 -0.0130316 -0.0490822 0.0138301 0 0 0 4.65988e-16 -1.24428e-15 -0.246075 -3.14282e-19 8.39195e-19 -0.000290814 -1.03923e-14 -3.89194e-15 9.11213e-28 0.001415 
8293 1 0.0410995 -0.0444363 0.0128991 0 0 0 7.14961e-16 -1.69459e-15 -0.246075 2.27024e-18 -5.3809e-18 -0.000290814 -1.13478e-13 -4.78774e-14 -6.44612e-28 0.001415 
8782 1 0.00995582 -0.0396456 0.0128374 0 0 0 1.05325e-15 4.80485e-16 -0.246075 -9.54969e-19 -4.35651e-19 -0.000290814 1.15006e-14 -2.521e-14 -9.98688e-28 0.001415 
1765 1 -0.00582286 -0.0341936 0.0135922 0 0 0 1.2723e-15 -3.9815e-16 -0.246075 -1.21979e-21 3.81718e-22 -0.000290814 -1.59983e-14 -5.11229e-14 4.64326e-28 0.001415 
7142 1 -0.0430179 -0.0310366 0.0143093 0 0 0 -9.67279e-16 9.60119e-16 -0.246075 4.36114e-19 -4.32886e-19 -0.000290814 2.60853e-14 2.62798e-14 -1.62335e-28 0.001415 
6549 1 -0.00774795 -0.0294214 0.0142775 0 0 0 6.4849e-16 -1.05105e-16 -0.246075 -5.34628e-19 8.66506e-20 -0.000290814 8.33837e-16 5.14472e-15 5.58078e-29 0.001415 
2898 1 -0.0015393 -0.0260351 0.0138644 0 0 0 8.47839e-16 -1.67372e-16 -0.246075 -8.12849e-22 1.60464e-22 -0.000290814 -5.03174e-16 -2.54889e-15 -8.95309e-29 0.001415 
2604 1 -0.0264828 -0.0239558 0.013589 0 0 0 2.01783e-15 -8.78554e-17 -0.246075 1.16629e-17 -5.07797e-19 -0.000290814 -4.18447e-15 -9.61075e-14 -1.02383e-28 0.001415 
7959 1 -0.0480224 -0.0227988 0.014271 0 0 0 -1.34105e-15 8.36449e-16 -0.246075 1.28571e-21 -8.01929e-22 -0.000290814 2.46517e-14 3.95233e-14 2.38019e-27 0.001415 
8818 1 0.00968245 -0.0211851 0.0138136 0 0 0 4.3238e-17 1.32986e-15 -0.246075 -3.8282e-20 -1.17743e-18 -0.000290814 4.79393e-15 -1.55865e-16 -1.67881e-28 0.001415 
9789 1 -0.0179785 -0.0208985 0.0139296 0 0 0 -9.74697e-16 -1.212e-15 -0.246075 7.37093e-19 9.16552e-19 -0.000290814 -1.92992e-14 1.55204e-14 5.57323e-28 0.001415 
4471 1 -0.0206599 -0.0174716 0.014186 0 0 0 -3.21456e-16 1.09883e-15 -0.246075 3.68085e-19 -1.25822e-18 -0.000290814 -4.59918e-15 -1.34546e-15 -2.66576e-28 0.001415 
1404 1 0.0175339 -0.0189217 0.0140659 0 0 0 -1.14661e-15 -3.35443e-16 -0.246075 1.47373e-18 4.31142e-19 -0.000290814 -2.42846e-16 8.30094e-16 4.29917e-28 0.001415 
8586 1 -0.0404855 -0.0156313 0.0146758 0 0 0 -6.59102e-17 8.70432e-16 -0.246075 -2.86292e-19 3.78087e-18 -0.000290814 -4.86686e-14 -3.68525e-15 -1.9916e-28 0.001415 
4388 1 -0.00265555 -0.0161876 0.0133022 0 0 0 5.45798e-16 -2.6607e-16 -0.246075 -6.20935e-19 3.02699e-19 -0.000290814 1.96012e-15 4.02085e-15 -1.11283e-29 0.001415 
2097 1 -0.0180782 -0.0116116 0.013603 0 0 0 1.47474e-15 2.67576e-16 -0.246075 -1.41388e-21 -2.56533e-22 -0.000290814 8.1037e-15 -4.46635e-14 -1.64087e-27 0.001415 
5435 1 0.0233242 -0.0111485 0.0145395 0 0 0 5.25282e-16 -9.98115e-16 -0.246075 -6.12983e-19 1.16476e-18 -0.000290814 -1.95525e-15 -1.029e-15 -3.76449e-28 0.001415 
9887 1 -0.0551901 -0.00373509 0.0128989 0 0 0 3.71951e-16 -4.64561e-16 -0.246075 -8.91057e-19 1.11292e-18 -0.000290814 6.35856e-15 5.09098e-15 -9.04848e-29 0.001415 
4853 1 -0.0586257 -7.65915e-05 0.0137966 0 0 0 7.39709e-16 1.21371e-15 -0.246075 -4.49505e-19 -7.37543e-19 -0.000290814 7.25521e-15 -4.42178e-15 -1.22314e-27 0.001415 
9743 1 -0.0492029 -0.00049722 0.0143018 0 0 0 6.48273e-16 7.38437e-16 -0.246075 -2.964e-19 -3.37624e-19 -0.000290814 1.93314e-14 -1.6971e-14 2.01167e-27 0.001415 
3403 1 0.0399954 0.00144601 0.0128181 0 0 0 -1.62282e-15 7.67951e-17 -0.246075 -8.12374e-18 3.84433e-19 -0.000290814 3.12786e-15 6.60971e-14 -5.19055e-28 0.001415 
3526 1 0.0549212 0.000551996 0.013181 0 0 0 -1.47331e-15 -6.70062e-16 -0.246075 1.41251e-21 6.42408e-22 -0.000290814 -2.19829e-14 4.83354e-14 -1.36596e-27 0.001415 
3843 1 -0.0432547 0.00201405 0.0134036 0 0 0 1.21462e-15 8.27598e-16 -0.246075 -1.16449e-21 -7.93442e-22 -0.000290814 1.6987e-14 -2.4931e-14 2.01317e-27 0.001415 
2455 1 0.0236249 0.00314802 0.0147153 0 0 0 2.27701e-16 -1.43195e-16 -0.246075 1.12093e-18 -7.04923e-19 -0.000290814 6.51637e-15 1.0362e-14 -2.99813e-28 0.001415 
6238 1 0.0476834 0.00358837 0.0129391 0 0 0 2.05515e-15 -1.32232e-15 -0.246075 8.84651e-18 -5.69199e-18 -0.000290814 -5.56363e-14 -8.64701e-14 8.04202e-28 0.001415 
7479 1 0.00708078 0.00479504 0.0128459 0 0 0 -7.28469e-16 7.38712e-16 -0.246075 5.81296e-19 -5.89471e-19 -0.000290814 2.82616e-15 2.78697e-15 3.79755e-28 0.001415 
6443 1 -0.0474965 0.00682656 0.0145985 0 0 0 -8.16048e-16 9.94138e-16 -0.246075 8.18427e-19 -9.97036e-19 -0.000290814 1.19784e-14 9.83262e-15 -2.31795e-28 0.001415 
7898 1 0.0197791 0.00861083 0.0140019 0 0 0 2.80474e-16 1.33691e-15 -0.246075 -2.16604e-19 -1.03247e-18 -0.000290814 1.56495e-14 -3.28315e-15 -4.42876e-28 0.001415 
4366 1 0.0434972 0.010956 0.013017 0 0 0 -8.01104e-16 7.22654e-16 -0.246075 8.50612e-19 -7.67314e-19 -0.000290814 3.1764e-15 3.52122e-15 -4.58385e-28 0.001415 
1176 1 0.023371 0.01534 0.0140033 0 0 0 1.79908e-17 1.52444e-15 -0.246075 -1.72484e-23 -1.46153e-21 -0.000290814 2.40536e-14 -2.83871e-16 -5.20573e-30 0.001415 
4344 1 0.0486622 0.0138541 0.0133099 0 0 0 -1.29202e-15 -4.54119e-16 -0.246075 9.67244e-19 3.39967e-19 -0.000290814 -3.52583e-15 1.00314e-14 7.77503e-28 0.001415 
5822 1 0.0700663 0.01371 0.0144895 0 0 0 1.10307e-15 -1.06023e-15 -0.246075 -1.05754e-21 1.01647e-21 -0.000290814 -2.64089e-14 -2.74759e-14 9.19606e-28 0.001415 
9808 1 -0.0411335 0.0170646 0.0145347 0 0 0 1.07638e-15 -8.87736e-16 -0.246075 -1.03195e-21 8.51099e-22 -0.000290814 -3.42597e-14 -4.15398e-14 2.99045e-27 0.001415 
5629 1 -0.00809486 0.0186934 0.0131832 0 0 0 1.87504e-15 3.28011e-17 -0.246075 1.04202e-17 1.82286e-19 -0.000290814 1.79568e-15 -1.02648e-13 4.37381e-28 0.001415 
9993 1 -0.0262716 0.020692 0.0132786 0 0 0 -7.95082e-16 -7.59539e-16 -0.246075 9.02952e-19 8.62587e-19 -0.000290814 -8.94857e-15 9.36732e-15 2.53638e-28 0.001415 
1278 1 -0.00656497 0.0230388 0.0143856 0 0 0 -8.2289e-16 -3.04823e-16 -0.246075 1.308e-18 4.84523e-19 -0.000290814 5.65924e-15 -1.52775e-14 9.93886e-30 0.001415 
3553 1 0.038325 0.0241144 0.0132808 0 0 0 -1.93126e-16 1.12981e-15 -0.246075 1.32925e-19 -7.77625e-19 -0.000290814 1.32877e-14 2.27137e-15 6.77101e-28 0.001415 
2811 1 0.0616855 0.0236687 0.0129 0 0 0 2.41341e-16 1.22454e-15 -0.246075 -2.56673e-19 -1.30234e-18 -0.000290814 -3.90369e-16 7.69363e-17 -2.02551e-28 0.001415 
9956 1 0.047731 0.0274693 0.0130954 0 0 0 3.69959e-16 2.05467e-15 -0.246075 1.72485e-18 9.57943e-18 -0.000290814 5.72958e-14 -1.03165e-14 4.39292e-28 0.001415 
6007 1 0.0347873 0.0296881 0.0128653 0 0 0 3.83125e-16 4.29282e-16 -0.246075 -3.67313e-22 -4.11565e-22 -0.000290814 -2.63591e-15 2.35249e-15 1.33564e-29 0.001415 
8774 1 0.0137081 0.0323084 0.0135389 0 0 0 -2.38083e-16 4.00684e-16 -0.246075 2.55926e-19 -4.30714e-19 -0.000290814 -5.06561e-15 -3.00993e-15 -7.95916e-29 0.001415 
6214 1 -0.0224995 0.0352466 0.0139552 0 0 0 -2.79775e-16 -1.30083e-15 -0.246075 1.59123e-19 7.3985e-19 -0.000290814 -2.06156e-14 4.43388e-15 1.08979e-27 0.001415 