ITEM: TIMESTEP
200000
ITEM: NUMBER OF ATOMS
10248
ITEM: BOX BOUNDS ff ff ff
-0.2 0.2
-0.2 0.2
-0.01 0.5
ITEM: ATOMS id type x y z ix iy iz vx vy vz fx fy fz omegax omegay omegaz radius 
168 1 0.0236963 -0.0374881 0.00142278 0 0 0 0.0326148 0.435327 0.00384504 -4.32857e-08 -5.77758e-07 -0.000291055 -307.739 23.0559 2.92771e-12 0.001415 
5124 1 -0.00943529 -0.0647942 0.00212727 0 0 0 -1.07551e-17 -3.78577e-18 -0.239213 1.01685e-23 3.57929e-24 -0.000290823 2.43525e-16 -6.91837e-16 1.49143e-32 0.001415 
9891 1 -0.0536741 -0.00562861 0.00201174 0 0 0 7.12594e-18 -8.90018e-18 -0.239213 -6.73727e-24 8.41475e-24 -0.000290823 6.62894e-16 5.30747e-16 -2.89605e-31 0.001415 
8778 1 0.0127785 0.033873 0.00253605 0 0 0 -4.29716e-18 7.23195e-18 -0.239213 4.06278e-24 -6.83751e-24 -0.000290823 -4.43895e-16 -2.63758e-16 3.68598e-31 0.001415 
5123 1 -0.00890863 -0.0646088 0.00490164 0 0 0 9.8188e-18 3.45619e-18 -0.239213 -9.28326e-24 -3.26768e-24 -0.000290823 2.42075e-16 -6.8772e-16 1.77183e-32 0.001415 
167 1 0.0236464 -0.0381532 0.00420717 0 0 0 0.022572 0.30128 0.0110503 -2.40963e-08 -3.21627e-07 -0.000291061 400.666 -30.018 1.61876e-11 0.001415 
5439 1 0.0255064 -0.015295 0.00440461 0 0 0 6.69711e-19 -1.27255e-18 -0.239213 -6.33183e-25 1.20314e-24 -0.000290823 -5.23859e-18 -2.75693e-18 2.22077e-33 0.001415 
9890 1 -0.0540531 -0.00515523 0.004776 0 0 0 -6.21397e-18 7.76115e-18 -0.239213 5.87505e-24 -7.33784e-24 -0.000290823 6.56887e-16 5.25938e-16 -2.89925e-31 0.001415 
5818 1 0.0744051 0.00953964 0.00507154 0 0 0 2.36849e-19 -2.27651e-19 -0.239213 -2.23931e-25 2.15235e-25 -0.000290823 -2.5316e-19 -2.63389e-19 -1.71768e-34 0.001415 
4096 1 0.0493328 0.0413049 0.00395663 0 0 0 1.74873e-17 -5.94607e-18 -0.239213 1.15996e-19 -3.9441e-20 -0.000290823 -9.68796e-16 -2.84921e-15 4.50781e-30 0.001415 
4641 1 -0.00200478 0.0474767 0.00463381 0 0 0 -2.10631e-18 1.13415e-18 -0.239213 1.99143e-24 -1.0723e-24 -0.000290823 5.34812e-18 9.93232e-18 -2.46511e-33 0.001415 
166 1 0.0235668 -0.0392166 0.00689261 0 0 0 -0.0114051 -0.152231 -0.0647822 9.16434e-09 1.22321e-07 -0.000290998 -76.3145 5.71749 -1.31802e-11 0.001415 
8779 1 0.0136066 -0.0379801 0.0055254 0 0 0 2.2709e-19 1.03597e-19 -0.239213 -2.14704e-25 -9.79467e-26 -0.000290823 1.55087e-18 -3.39957e-18 2.49951e-32 0.001415 
6552 1 -0.00600865 -0.0297033 0.00614216 0 0 0 9.24443e-19 -1.4983e-19 -0.239213 -8.74022e-25 1.41658e-25 -0.000290823 -1.49623e-19 -9.23163e-19 -2.17645e-33 0.001415 
1407 1 0.0135434 -0.0200891 0.0068335 0 0 0 -8.62005e-19 -2.52181e-19 -0.239213 8.14989e-25 2.38427e-25 -0.000290823 -5.83711e-19 1.99524e-18 9.84927e-36 0.001415 
8589 1 -0.0402517 -0.0187189 0.00694046 0 0 0 7.32386e-20 -9.67215e-19 -0.239213 -6.9244e-26 9.14461e-25 -0.000290823 -4.51275e-18 -3.41711e-19 -1.37893e-31 0.001415 
5438 1 0.0249608 -0.0142584 0.00698079 0 0 0 4.8459e-16 -9.20793e-16 -0.239213 1.26156e-17 -2.39715e-17 -0.000290823 -2.21634e-14 -1.1664e-14 -1.46266e-28 0.001415 
2100 1 -0.012979 -0.0106864 0.00704811 0 0 0 1.14838e-15 2.0836e-16 -0.239213 3.09152e-17 5.60923e-18 -0.000290823 8.7513e-16 -4.82327e-15 2.69882e-28 0.001415 
4516 1 0.00201022 -0.00437069 0.00556209 0 0 0 -1.24696e-18 1.48862e-18 -0.239213 1.17895e-24 -1.40742e-24 -0.000290823 5.59506e-18 4.68677e-18 -2.89595e-32 0.001415 
6447 1 -0.0515136 0.0117203 0.00538448 0 0 0 -1.27928e-18 1.55846e-18 -0.239213 1.2095e-24 -1.47346e-24 -0.000290823 3.38239e-18 2.77647e-18 -3.23423e-32 0.001415 
4347 1 0.0446345 0.0124385 0.00614125 0 0 0 -9.14461e-19 -3.21415e-19 -0.239213 8.64585e-25 3.03885e-25 -0.000290823 8.33338e-19 -2.37094e-18 -1.24873e-32 0.001415 
9996 1 -0.0293411 0.0177597 0.00609591 0 0 0 -1.98981e-18 -1.90086e-18 -0.239213 1.88128e-24 1.79718e-24 -0.000290823 -9.26985e-18 9.70363e-18 1.08543e-32 0.001415 
1281 1 -0.00910888 0.0220965 0.00651049 0 0 0 -8.68964e-19 -3.2189e-19 -0.239213 8.21569e-25 3.04333e-25 -0.000290823 -1.07236e-18 2.89491e-18 -1.2427e-33 0.001415 
4221 1 0.00751144 0.0235905 0.00545434 0 0 0 5.01579e-20 -3.70699e-19 -0.239213 -4.74222e-26 3.5048e-25 -0.000290823 3.31767e-18 4.48902e-19 -1.15647e-32 0.001415 
3550 1 0.0375782 0.0284832 0.0062094 0 0 0 -1.26244e-18 7.38539e-18 -0.239213 1.19358e-24 -6.98257e-24 -0.000290823 8.6196e-17 1.47341e-17 -2.39913e-32 0.001415 
2814 1 0.0624335 0.0274639 0.00551226 0 0 0 1.78695e-19 9.06683e-19 -0.239213 -1.68949e-25 -8.57231e-25 -0.000290823 -1.6711e-18 3.29351e-19 1.11997e-32 0.001415 
8777 1 0.0130109 0.0334818 0.00532923 0 0 0 4.0537e-18 -6.82222e-18 -0.239213 -3.8326e-24 6.45012e-24 -0.000290823 -4.42193e-16 -2.62747e-16 3.68186e-31 0.001415 
484 1 0.0153265 0.0412785 0.00659991 0 0 0 3.21058e-18 -2.72129e-18 -0.239213 -3.03547e-24 2.57286e-24 -0.000290823 -1.7328e-17 -2.04436e-17 1.33309e-32 0.001415 
4097 1 0.0483957 0.0416236 0.00660791 0 0 0 -1.58054e-17 5.37418e-18 -0.239213 -1.15997e-19 3.94416e-20 -0.000290823 -9.67401e-16 -2.84511e-15 4.48763e-30 0.001415 
4640 1 -0.000842548 0.0468509 0.00713711 0 0 0 -1.17302e-15 6.31619e-16 -0.239213 -2.8528e-17 1.53611e-17 -0.000290823 5.99135e-15 1.11269e-14 -5.34362e-28 0.001415 
7350 1 0.0388042 0.0484249 0.00684098 0 0 0 -8.37046e-21 -1.41552e-19 -0.239213 7.91392e-27 1.33832e-25 -0.000290823 -2.9174e-18 1.72516e-19 1.45392e-33 0.001415 
5122 1 -0.00838197 -0.0644234 0.00767602 0 0 0 -1.25552e-16 -4.4194e-17 -0.239213 -5.66143e-18 -1.99281e-18 -0.000290823 -4.76114e-16 1.35261e-15 -3.45472e-29 0.001415 
9219 1 -0.0350531 -0.0474779 0.00839964 0 0 0 0 0 -0.239213 0 0 -0.000290823 0 0 0 0.001415 
8295 1 0.0424827 -0.0477148 0.00866735 0 0 0 0 0 -0.239213 0 0 -0.000290823 0 0 0 0.001415 
8780 1 0.0123897 -0.0385353 0.00801935 0 0 0 3.92118e-17 1.78882e-17 -0.239213 2.8112e-19 1.28245e-19 -0.000290823 -3.18965e-15 6.99187e-15 -1.55401e-29 0.001415 
6551 1 -0.00658842 -0.0296093 0.00891055 0 0 0 5.67835e-18 -9.20327e-19 -0.239213 4.45395e-20 -7.21881e-21 -0.000290823 -1.58869e-16 -9.80211e-16 3.08026e-31 0.001415 
9889 1 -0.0544321 -0.00468185 0.00754027 0 0 0 1.52315e-16 -1.90239e-16 -0.239213 6.56057e-18 -8.19404e-18 -0.000290823 -3.13585e-15 -2.51072e-15 8.77978e-30 0.001415 
4517 1 0.00302288 -0.0055796 0.00791198 0 0 0 1.24696e-18 -1.48862e-18 -0.239213 -1.17895e-24 1.40742e-24 -0.000290823 5.59506e-18 4.68677e-18 -2.89595e-32 0.001415 
3528 1 0.0516347 -0.000942708 0.00899196 0 0 0 -2.42979e-17 -1.10507e-17 -0.239213 -1.62508e-19 -7.39088e-20 -0.000290823 -1.54585e-15 3.39898e-15 -1.70252e-29 0.001415 
7477 1 0.00556963 0.00632744 0.00778087 0 0 0 -1.72117e-18 1.74537e-18 -0.239213 -6.9825e-19 7.08069e-19 -0.000290823 -2.84444e-18 -2.805e-18 1.58394e-30 0.001415 
6446 1 -0.0505093 0.0104969 0.00773043 0 0 0 -4.25468e-18 5.1832e-18 -0.239213 4.02263e-24 -4.9005e-24 -0.000290823 1.62948e-16 1.33758e-16 2.88509e-30 0.001415 
5819 1 0.0733204 0.0105822 0.00746848 0 0 0 1.90484e-16 -1.83087e-16 -0.239213 8.53123e-18 -8.19994e-18 -0.000290823 -2.79335e-16 -2.90621e-16 4.12637e-29 0.001415 
4368 1 0.0417993 0.0124877 0.00800928 0 0 0 0 0 -0.239213 0 0 -0.000290823 0 0 0 0.001415 
4346 1 0.0459771 0.0129104 0.00858742 0 0 0 -1.47148e-17 -5.17195e-18 -0.239213 -1.19347e-19 -4.19483e-20 -0.000290823 -5.61443e-16 1.59737e-15 1.04933e-30 0.001415 
9995 1 -0.0283179 0.0187371 0.00854676 0 0 0 1.98981e-18 1.90086e-18 -0.239213 -1.88128e-24 -1.79718e-24 -0.000290823 -9.26985e-18 9.70363e-18 1.08543e-32 0.001415 
4220 1 0.00732219 0.0249892 0.00790725 0 0 0 2.34876e-18 -1.73589e-17 -0.239213 1.91073e-20 -1.41215e-19 -0.000290823 -2.98532e-15 -4.03933e-16 4.273e-31 0.001415 
2813 1 0.0621842 0.0261988 0.00803145 0 0 0 2.22417e-18 1.12852e-17 -0.239213 2.12893e-20 1.0802e-19 -0.000290823 2.94137e-15 -5.79704e-16 -2.44731e-31 0.001415 
3551 1 0.0378271 0.027027 0.00862316 0 0 0 1.26244e-18 -7.38539e-18 -0.239213 -1.19358e-24 6.98257e-24 -0.000290823 8.6196e-17 1.47341e-17 -2.39913e-32 0.001415 
8776 1 0.0132433 0.0330907 0.00812242 0 0 0 -1.25153e-18 2.10628e-18 -0.239213 -1.42278e-20 2.39449e-20 -0.000290823 7.93751e-16 4.71639e-16 1.17288e-30 0.001415 
3969 1 -0.0266131 0.0377733 0.00752773 0 0 0 -1.29451e-16 4.04982e-16 -0.239213 -5.08229e-18 1.58998e-17 -0.000290823 -6.07164e-15 -1.94077e-15 3.45876e-29 0.001415 
7875 1 -0.0151895 0.0366812 0.00792866 0 0 0 6.08393e-18 7.19633e-18 -0.239213 4.97272e-20 5.88195e-20 -0.000290823 1.35303e-15 -1.14388e-15 4.89851e-30 0.001415 
485 1 0.0142511 0.04219 0.0090538 0 0 0 -3.21058e-18 2.72129e-18 -0.239213 3.03547e-24 -2.57286e-24 -0.000290823 -1.7328e-17 -2.04436e-17 1.33309e-32 0.001415 
5121 1 -0.0078553 -0.064238 0.0104504 0 0 0 8.57292e-17 3.01764e-17 -0.239213 4.9283e-18 1.73475e-18 -0.000290823 -9.68619e-16 2.75178e-15 2.38192e-28 0.001415 
6406 1 -0.013834 -0.0547628 0.00932775 0 0 0 2.18195e-17 -6.36124e-18 -0.239213 1.46912e-19 -4.28307e-20 -0.000290823 -7.72361e-16 -2.64926e-15 1.26319e-29 0.001415 
4747 1 -0.048396 -0.0516837 0.0101165 0 0 0 -6.54883e-17 9.57513e-18 -0.239213 -4.50702e-19 6.58978e-20 -0.000290823 2.10267e-16 1.4381e-15 3.74713e-30 0.001415 
8904 1 0.00698378 -0.051284 0.0096359 0 0 0 0 0 -0.239213 0 0 -0.000290823 0 0 0 0.001415 
9218 1 -0.0344149 -0.0491301 0.0106069 0 0 0 -1.85519e-17 4.8021e-17 -0.239213 -2.16791e-19 5.61157e-19 -0.000290823 -1.0955e-14 -4.23224e-15 -6.90305e-29 0.001415 
8294 1 0.0417911 -0.0460756 0.0108681 0 0 0 0 0 -0.239213 0 0 -0.000290823 0 0 0 0.001415 
8781 1 0.0111727 -0.0390904 0.0105133 0 0 0 -5.18997e-18 -2.36763e-18 -0.239213 4.02305e-19 1.83529e-19 -0.000290823 -5.74205e-15 1.25869e-14 1.12919e-29 0.001415 
165 1 0.0235407 -0.0395646 0.009727 0 0 0 -0.00268463 -0.0358332 -0.0201023 1.50985e-09 2.01528e-08 -0.000291038 -10.1221 0.758353 -1.93315e-11 0.001415 
9787 1 -0.0202299 -0.023698 0.0097257 0 0 0 -9.90106e-18 -1.23117e-17 -0.239213 -8.25525e-20 -1.02651e-19 -0.000290823 -6.15725e-16 4.95167e-16 -4.85267e-29 0.001415 
1406 1 0.0148736 -0.0197 0.00930092 0 0 0 8.62005e-19 2.52181e-19 -0.239213 -8.14989e-25 -2.38427e-25 -0.000290823 -5.83711e-19 1.99524e-18 9.84927e-36 0.001415 
8588 1 -0.0403296 -0.0176897 0.00957553 0 0 0 1.03216e-17 -1.36311e-16 -0.239213 1.14375e-19 -1.51048e-18 -0.000290823 2.39602e-14 1.81429e-15 1.62642e-28 0.001415 
4389 1 -0.00210167 -0.0164576 0.01071 0 0 0 2.68958e-17 -1.31114e-17 -0.239213 5.13438e-19 -2.50295e-19 -0.000290823 2.59637e-17 5.32602e-17 -4.47254e-29 0.001415 
8820 1 0.00980992 -0.0172644 0.00990333 0 0 0 0 0 -0.239213 0 0 -0.000290823 0 0 0 0.001415 
3529 1 0.0670132 -0.0166749 0.0102033 0 0 0 4.67778e-19 5.74524e-19 -0.239213 3.64972e-19 4.48258e-19 -0.000290823 -2.21663e-17 1.80478e-17 -7.05773e-30 0.001415 
4473 1 -0.0215554 -0.0144106 0.00968 0 0 0 0 0 -0.239213 0 0 -0.000290823 0 0 0 0.001415 
5437 1 0.0244153 -0.0132218 0.00955697 0 0 0 -4.49927e-16 8.54929e-16 -0.239213 -1.18543e-17 2.2525e-17 -0.000290823 -1.30186e-14 -6.85135e-15 3.07475e-29 0.001415 
2099 1 -0.0146787 -0.0109948 0.00928969 0 0 0 -1.1076e-15 -2.00963e-16 -0.239213 -2.96515e-17 -5.37995e-18 -0.000290823 1.06769e-15 -5.88457e-15 1.70098e-28 0.001415 
4518 1 0.00403554 -0.00678852 0.0102619 0 0 0 -4.8771e-17 5.82227e-17 -0.239213 -5.39503e-19 6.44058e-19 -0.000290823 -2.0153e-14 -1.68814e-14 -6.74774e-28 0.001415 
9888 1 -0.0548111 -0.00420847 0.0103045 0 0 0 -1.28691e-16 1.60734e-16 -0.239213 -6.04442e-18 7.54939e-18 -0.000290823 -2.65087e-15 -2.12242e-15 6.18016e-29 0.001415 
2457 1 0.0227749 0.00368251 0.00931494 0 0 0 0 0 -0.239213 0 0 -0.000290823 0 0 0 0.001415 
1470 1 -0.0541433 0.00552442 0.0105521 0 0 0 5.8112e-17 5.59999e-17 -0.239213 6.48142e-19 6.24584e-19 -0.000290823 -2.20416e-14 2.28729e-14 -1.76059e-28 0.001415 
7478 1 0.0063252 0.00556124 0.0103983 0 0 0 -1.78621e-17 1.81132e-17 -0.239213 3.10009e-19 -3.14368e-19 -0.000290823 -4.51251e-16 -4.44994e-16 -1.86787e-28 0.001415 
5545 1 -0.0302182 0.00727945 0.0106924 0 0 0 0 0 -0.239213 0 0 -0.000290823 0 0 0 0.001415 
6445 1 -0.0495051 0.00927345 0.0100764 0 0 0 -1.16563e-18 1.42001e-18 -0.239213 -6.38058e-20 7.77304e-20 -0.000290823 1.61103e-15 1.32243e-15 1.5156e-29 0.001415 
4431 1 -0.0620527 0.012605 0.0100709 0 0 0 -7.69678e-17 1.6442e-17 -0.239213 -8.26037e-19 1.7646e-19 -0.000290823 -4.69294e-15 -2.19684e-14 5.18171e-29 0.001415 
4367 1 0.0426483 0.0117219 0.010598 0 0 0 -5.07329e-17 4.57648e-17 -0.239213 -6.81747e-19 6.14985e-19 -0.000290823 -5.16309e-15 -5.72359e-15 -3.09586e-28 0.001415 
4345 1 0.0473197 0.0133822 0.0110336 0 0 0 -1.97453e-17 -6.94009e-18 -0.239213 -5.89726e-19 -2.07277e-19 -0.000290823 1.8416e-15 -5.23954e-15 -2.00809e-28 0.001415 
5820 1 0.0722357 0.0116248 0.00986542 0 0 0 -1.77141e-16 1.70262e-16 -0.239213 -8.32822e-18 8.00481e-18 -0.000290823 -1.86789e-15 -1.94336e-15 3.08687e-30 0.001415 
9994 1 -0.0272948 0.0197145 0.0109976 0 0 0 -7.62533e-17 -7.28446e-17 -0.239213 -9.36132e-19 -8.94284e-19 -0.000290823 1.61276e-14 -1.68823e-14 -2.68253e-28 0.001415 
1280 1 -0.00826091 0.0224106 0.00919213 0 0 0 8.68964e-19 3.2189e-19 -0.239213 -8.21569e-25 -3.04333e-25 -0.000290823 -1.07236e-18 2.89491e-18 -1.2427e-33 0.001415 
2812 1 0.0619348 0.0249338 0.0105506 0 0 0 1.41821e-17 7.1959e-17 -0.239213 1.98869e-19 1.00904e-18 -0.000290823 -8.26077e-15 1.62809e-15 4.41123e-29 0.001415 
4219 1 0.00713294 0.0263879 0.0103602 0 0 0 9.1885e-18 -6.79089e-17 -0.239213 1.33973e-19 -9.90148e-19 -0.000290823 1.73496e-14 2.34751e-15 2.04459e-28 0.001415 
3552 1 0.038076 0.0255707 0.0110369 0 0 0 -9.30943e-18 5.4461e-17 -0.239213 -1.36519e-19 7.98652e-19 -0.000290823 -1.29178e-14 -2.20813e-15 2.63449e-28 0.001415 
6216 1 -0.023401 0.0310553 0.0104296 0 0 0 -3.8606e-18 -1.79501e-17 -0.239213 -2.86955e-20 -1.33421e-19 -0.000290823 -1.84732e-15 3.97312e-16 6.28229e-30 0.001415 
8775 1 0.0134757 0.0326995 0.0109156 0 0 0 -1.01896e-17 1.71488e-17 -0.239213 -1.95276e-19 3.28642e-19 -0.000290823 4.05916e-16 2.41191e-16 4.54317e-30 0.001415 
3968 1 -0.0261983 0.0364757 0.0100083 0 0 0 1.29451e-16 -4.04982e-16 -0.239213 5.08229e-18 -1.58998e-17 -0.000290823 -6.07164e-15 -1.94077e-15 3.45876e-29 0.001415 
7874 1 -0.0157052 0.0360712 0.0106436 0 0 0 1.17126e-17 1.38542e-17 -0.239213 3.88638e-19 4.59698e-19 -0.000290823 1.44048e-15 -1.21781e-15 -1.94326e-28 0.001415 
9745 1 -0.0323504 0.0411674 0.00931457 0 0 0 0 0 -0.239213 0 0 -0.000290823 0 0 0 0.001415 
4098 1 0.0474587 0.0419422 0.00925919 0 0 0 3.69034e-18 -1.2548e-18 -0.239213 4.70354e-20 -1.59931e-20 -0.000290823 -6.11443e-18 -1.79825e-17 1.72928e-30 0.001415 
4639 1 0.000319678 0.0462251 0.00964041 0 0 0 1.11897e-15 -6.02517e-16 -0.239213 2.7104e-17 -1.45943e-17 -0.000290823 7.56635e-15 1.40519e-14 -3.61943e-28 0.001415 
7349 1 0.0388392 0.0490157 0.0096084 0 0 0 -2.58625e-18 -4.37359e-17 -0.239213 -3.51075e-20 -5.937e-19 -0.000290823 5.46346e-15 -3.23073e-16 -3.72133e-29 0.001415 
6048 1 -0.0014895 0.0671831 0.0109229 0 0 0 -9.02207e-17 -5.42156e-18 -0.239213 -1.17324e-18 -7.05024e-20 -0.000290823 1.04118e-15 -1.73263e-14 -1.08768e-28 0.001415 
3318 1 0.0108764 -0.0748018 0.0116975 0 0 0 0 0 -0.239213 0 0 -0.000290823 0 0 0 0.001415 
6407 1 -0.0157638 -0.0542001 0.0113198 0 0 0 -2.18195e-17 6.36124e-18 -0.239213 -1.46912e-19 4.28307e-20 -0.000290823 -7.72361e-16 -2.64926e-15 1.26319e-29 0.001415 
4748 1 -0.0463698 -0.05198 0.0120699 0 0 0 -7.44867e-18 1.08908e-18 -0.239213 -4.20072e-19 6.14194e-20 -0.000290823 -5.25407e-15 -3.59348e-14 1.29932e-28 0.001415 
8903 1 0.00719176 -0.0530399 0.0118456 0 0 0 -8.57294e-18 7.23767e-17 -0.239213 -1.05698e-19 8.92347e-19 -0.000290823 -2.03885e-14 -2.415e-15 1.80235e-28 0.001415 
9217 1 -0.0337766 -0.0507822 0.0128141 0 0 0 -3.41323e-16 8.83503e-16 -0.239213 -1.51061e-18 3.91016e-18 -0.000290823 4.24786e-15 1.64107e-15 1.21694e-27 0.001415 
8421 1 -0.0125515 -0.050364 0.011523 0 0 0 1.02585e-17 -2.73922e-17 -0.239213 2.05873e-19 -5.49721e-19 -0.000290823 3.66968e-15 1.37431e-15 -7.34346e-28 0.001415 
5040 1 0.0412118 -0.051077 0.0111001 0 0 0 0 0 -0.239213 0 0 -0.000290823 0 0 0 0.001415 
164 1 0.0235034 -0.0400616 0.0125327 0 0 0 -0.00275484 -0.0367703 0.00109694 1.52651e-09 2.03751e-08 -0.00029105 8.21605 -0.615548 -1.82194e-11 0.001415 
7141 1 -0.0440609 -0.0300013 0.0120606 0 0 0 0 0 -0.239213 0 0 -0.000290823 0 0 0 0.001415 
6550 1 -0.00716818 -0.0295154 0.0116789 0 0 0 -6.09377e-18 9.87658e-19 -0.239213 3.52085e-19 -5.70646e-20 -0.000290823 -1.61915e-16 -9.99004e-16 -1.10716e-30 0.001415 
1113 1 0.057839 -0.0250229 0.0128909 0 0 0 1.61253e-15 8.27302e-16 -0.239213 1.10455e-17 5.66686e-18 -0.000290823 1.60098e-14 -3.12055e-14 3.41558e-28 0.001415 
9788 1 -0.0191042 -0.0222982 0.0119126 0 0 0 -4.10509e-17 -5.10455e-17 -0.239213 -6.74785e-19 -8.39074e-19 -0.000290823 1.7669e-14 -1.42094e-14 9.00164e-28 0.001415 
1405 1 0.0162037 -0.0193109 0.0117683 0 0 0 -1.04886e-16 -3.06846e-17 -0.239213 -1.28824e-18 -3.76876e-19 -0.000290823 6.04464e-15 -2.06618e-14 -6.17183e-28 0.001415 
8819 1 0.00974619 -0.0192248 0.0119434 0 0 0 3.59882e-18 1.10688e-16 -0.239213 3.95159e-20 1.21538e-18 -0.000290823 -2.36047e-14 7.6746e-16 -2.02857e-28 0.001415 
3530 1 0.0663652 -0.0174708 0.0128406 0 0 0 8.31372e-16 1.02109e-15 -0.239213 1.18776e-18 1.45881e-18 -0.000290823 7.34508e-15 -5.98037e-15 -2.88726e-28 0.001415 
8587 1 -0.0404076 -0.0166605 0.0122106 0 0 0 6.1796e-17 -8.16099e-16 -0.239213 2.57711e-19 -3.40342e-18 -0.000290823 -9.90543e-15 -7.5005e-16 -4.879e-29 0.001415 
4472 1 -0.0211077 -0.0159411 0.0120179 0 0 0 -3.71516e-17 1.26995e-16 -0.239213 -3.81585e-19 1.30437e-18 -0.000290823 -3.106e-14 -9.08643e-15 -4.99528e-28 0.001415 
5436 1 0.0238697 -0.0121851 0.0121331 0 0 0 3.06338e-18 -5.82088e-18 -0.239213 -2.70784e-19 5.14531e-19 -0.000290823 1.5154e-14 7.97517e-15 2.24317e-28 0.001415 
2098 1 -0.0163785 -0.0113032 0.0115313 0 0 0 -4.07724e-17 -7.39772e-18 -0.239213 -1.26366e-18 -2.29278e-19 -0.000290823 1.92562e-16 -1.0613e-15 -9.97847e-29 0.001415 
4519 1 0.0050482 -0.00799743 0.0126117 0 0 0 -5.54742e-16 6.6225e-16 -0.239213 -2.90109e-18 3.46332e-18 -0.000290823 2.6463e-15 2.2167e-15 1.17327e-27 0.001415 
3527 1 0.053278 -0.000195356 0.0111714 0 0 0 2.42979e-17 1.10507e-17 -0.239213 1.62508e-19 7.39088e-20 -0.000290823 -1.54585e-15 3.39898e-15 -1.70252e-29 0.001415 
4852 1 -0.0576017 0.00160357 0.0119324 0 0 0 3.77482e-17 6.19368e-17 -0.239213 4.6064e-19 7.55813e-19 -0.000290823 -1.26128e-14 7.68702e-15 5.61076e-28 0.001415 
9744 1 -0.0476714 0.00124731 0.012853 0 0 0 2.31022e-17 2.63153e-17 -0.239213 3.00004e-19 3.41729e-19 -0.000290823 -1.18786e-14 1.04282e-14 3.55552e-28 0.001415 
2456 1 0.0231999 0.00341526 0.0121001 0 0 0 -3.40534e-16 2.14153e-16 -0.239213 -1.53726e-18 9.66741e-19 -0.000290823 4.06372e-15 6.4619e-15 -2.20241e-28 0.001415 
1469 1 -0.0554428 0.00427207 0.0127319 0 0 0 7.1516e-16 6.89166e-16 -0.239213 3.35006e-18 3.22829e-18 -0.000290823 1.5917e-14 -1.65174e-14 -6.95363e-29 0.001415 
6444 1 -0.0485008 0.00805 0.0124223 0 0 0 -5.85586e-17 7.13381e-17 -0.239213 -7.81781e-19 9.52393e-19 -0.000290823 -1.74504e-14 -1.43243e-14 -1.43104e-27 0.001415 
5546 1 -0.0286421 0.00814112 0.0128793 0 0 0 -1.27385e-15 -6.96435e-16 -0.239213 -6.75422e-18 -3.69263e-18 -0.000290823 -2.65595e-14 4.85802e-14 -3.82251e-27 0.001415 
7897 1 0.0202104 0.0106666 0.0122752 0 0 0 1.92635e-17 9.18214e-17 -0.239213 2.22373e-19 1.05996e-18 -0.000290823 -2.87611e-14 6.03388e-15 8.55144e-29 0.001415 
4430 1 -0.0607358 0.0123237 0.01256 0 0 0 -8.14909e-16 1.74083e-16 -0.239213 -3.73068e-18 7.96957e-19 -0.000290823 1.33446e-15 6.2468e-15 -8.61361e-29 0.001415 
5821 1 0.071151 0.0126674 0.0122624 0 0 0 -1.35798e-17 1.30525e-17 -0.239213 -2.03008e-19 1.95125e-19 -0.000290823 -1.58881e-15 -1.653e-15 -3.8177e-29 0.001415 
1279 1 -0.00741294 0.0227247 0.0118738 0 0 0 -7.90082e-17 -2.9267e-17 -0.239213 -1.0902e-18 -4.03843e-19 -0.000290823 5.16135e-16 -1.39334e-15 -1.35985e-28 0.001415 
4218 1 0.00694369 0.0277865 0.0128131 0 0 0 1.57795e-16 -1.16621e-15 -0.239213 4.42724e-19 -3.27201e-18 -0.000290823 -3.72812e-14 -5.04438e-15 1.7004e-28 0.001415 
9955 1 0.0480973 0.0295036 0.0113323 0 0 0 0 0 -0.239213 0 0 -0.000290823 0 0 0 0.001415 
6215 1 -0.0229502 0.0331509 0.0122773 0 0 0 -8.86466e-18 -4.12168e-17 -0.239213 -1.32601e-19 -6.16538e-19 -0.000290823 2.83142e-14 -6.08965e-15 -2.51133e-28 0.001415 
3967 1 -0.0257836 0.0351781 0.0124888 0 0 0 -2.95546e-16 9.24606e-16 -0.239213 -1.45262e-18 4.54448e-18 -0.000290823 1.42366e-14 4.55066e-15 -7.05215e-28 0.001415 
4099 1 0.0465216 0.0422608 0.0119105 0 0 0 1.54557e-17 -5.25526e-18 -0.239213 6.32705e-19 -2.15134e-19 -0.000290823 -3.10223e-16 -9.1236e-16 -2.02891e-28 0.001415 
9746 1 -0.0326219 0.0429159 0.0115232 0 0 0 1.27778e-17 -8.22938e-17 -0.239213 1.53511e-19 -9.88666e-19 -0.000290823 2.23371e-14 3.4683e-15 -2.87884e-28 0.001415 
486 1 0.0131757 0.0431015 0.0115077 0 0 0 9.27547e-17 -7.86188e-17 -0.239213 1.02201e-18 -8.66255e-19 -0.000290823 1.98745e-14 2.34481e-14 -2.66949e-28 0.001415 
4638 1 0.00148191 0.0455993 0.0121437 0 0 0 4.56323e-18 -2.4571e-18 -0.239213 6.3935e-19 -3.44262e-19 -0.000290823 -4.04232e-15 -7.50723e-15 6.74019e-28 0.001415 
7348 1 0.0388741 0.0496065 0.0123758 0 0 0 -3.59319e-17 -6.07642e-16 -0.239213 -1.76427e-19 -2.98354e-18 -0.000290823 4.32417e-15 -2.55703e-16 1.73668e-29 0.001415 
8316 1 0.0241447 0.055508 0.0120753 0 0 0 0 0 -0.239213 0 0 -0.000290823 0 0 0 0.001415 
4831 1 0.0293284 0.0560787 0.0125446 0 0 0 9.33585e-16 -5.18972e-16 -0.239213 4.93796e-18 -2.74497e-18 -0.000290823 -1.9586e-14 -3.52335e-14 -7.70757e-28 0.001415 
6909 1 0.00964204 0.0590336 0.0125787 0 0 0 1.92473e-16 -1.1597e-16 -0.239213 1.78214e-18 -1.07379e-18 -0.000290823 3.24402e-14 5.38403e-14 -1.01418e-27 0.001415 
8757 1 0.00829498 0.0765507 0.0129336 0 0 0 0 0 -0.239213 0 0 -0.000290823 0 0 0 0.001415 
3317 1 0.00879117 -0.0741345 0.0134907 0 0 0 1.24425e-15 -3.98177e-16 -0.239213 2.25246e-18 -7.20819e-19 -0.000290823 -1.89234e-14 -5.91332e-14 -1.66167e-27 0.001415 
4537 1 0.0348065 -0.0668743 0.0134686 0 0 0 4.56667e-16 -8.89329e-16 -0.239213 -4.3176e-22 8.40823e-22 -0.000290823 9.442e-15 4.84843e-15 -4.63254e-29 0.001415 
5120 1 -0.00732864 -0.0640527 0.0132248 0 0 0 -5.36082e-16 -1.88699e-16 -0.239213 7.33675e-19 2.58251e-19 -0.000290823 2.42749e-15 -6.89633e-15 3.21027e-28 0.001415 
8902 1 0.00739974 -0.0547957 0.0140553 0 0 0 -1.71487e-16 1.44777e-15 -0.239213 1.05868e-19 -8.93785e-19 -0.000290823 1.66137e-14 1.96787e-15 5.06976e-29 0.001415 
4749 1 -0.0443437 -0.0522762 0.0140233 0 0 0 -1.11201e-15 1.62589e-16 -0.239213 8.71894e-19 -1.27481e-19 -0.000290823 3.70908e-15 2.53679e-14 -8.85995e-29 0.001415 
6408 1 -0.0176936 -0.0536375 0.0133119 0 0 0 2.48326e-15 -7.23966e-16 -0.239213 2.34618e-17 -6.84003e-18 -0.000290823 -2.44599e-14 -8.38992e-14 -2.30371e-27 0.001415 
5039 1 0.0393096 -0.0515993 0.0131293 0 0 0 1.60058e-15 4.39488e-16 -0.239213 1.06363e-17 2.92052e-18 -0.000290823 1.28014e-14 -4.66219e-14 2.34475e-27 0.001415 
8420 1 -0.0130316 -0.0490822 0.014 0 0 0 4.70823e-16 -1.25719e-15 -0.239213 -2.06327e-19 5.50936e-19 -0.000290823 -1.18092e-14 -4.42259e-15 1.42273e-27 0.001415 
8293 1 0.0410995 -0.0444363 0.0130689 0 0 0 6.50072e-16 -1.54079e-15 -0.239213 2.86527e-18 -6.79123e-18 -0.000290823 -8.46279e-14 -3.57052e-14 -4.44677e-29 0.001415 
8782 1 0.00995582 -0.0396456 0.0130072 0 0 0 1.06927e-15 4.87793e-16 -0.239213 -6.84467e-19 -3.1225e-19 -0.000290823 1.24852e-14 -2.73682e-14 -1.07916e-27 0.001415 
1765 1 -0.00582286 -0.0341936 0.0137621 0 0 0 1.27232e-15 -3.98159e-16 -0.239213 -1.20293e-21 3.76442e-22 -0.000290823 -1.59989e-14 -5.11248e-14 4.64344e-28 0.001415 
7142 1 -0.0430179 -0.0310366 0.0144792 0 0 0 -9.67348e-16 9.60189e-16 -0.239213 9.14587e-22 -9.07818e-22 -0.000290823 2.60947e-14 2.62893e-14 -1.61903e-28 0.001415 
6549 1 -0.00774795 -0.0294214 0.0144473 0 0 0 6.57755e-16 -1.06607e-16 -0.239213 -3.97246e-19 6.43842e-20 -0.000290823 9.06105e-16 5.5906e-15 9.33307e-29 0.001415 
2898 1 -0.0015393 -0.0260351 0.0140343 0 0 0 8.47858e-16 -1.67375e-16 -0.239213 -8.01614e-22 1.58246e-22 -0.000290823 -5.03194e-16 -2.54898e-15 -8.95343e-29 0.001415 
2604 1 -0.0264828 -0.0239558 0.0137588 0 0 0 1.72294e-15 -7.5016e-17 -0.239213 1.29629e-17 -5.64397e-19 -0.000290823 -3.29091e-15 -7.55844e-14 -2.14889e-28 0.001415 
7959 1 -0.0480224 -0.0227988 0.0144408 0 0 0 -1.34108e-15 8.36468e-16 -0.239213 1.26794e-21 -7.90845e-22 -0.000290823 2.46527e-14 3.95248e-14 2.38028e-27 0.001415 
8818 1 0.00968245 -0.0211851 0.0139835 0 0 0 4.41566e-17 1.35812e-15 -0.239213 -3.9561e-20 -1.21677e-18 -0.000290823 1.13149e-14 -3.67882e-16 -8.70889e-29 0.001415 
9789 1 -0.0179785 -0.0208985 0.0140994 0 0 0 -9.92343e-16 -1.23395e-15 -0.239213 7.58324e-19 9.42952e-19 -0.000290823 -2.46216e-14 1.98008e-14 -1.39209e-28 0.001415 
4471 1 -0.0206599 -0.0174716 0.0143559 0 0 0 -3.30307e-16 1.12908e-15 -0.239213 3.81932e-19 -1.30555e-18 -0.000290823 3.7761e-15 1.10468e-15 -1.92066e-28 0.001415 
1404 1 0.0175339 -0.0189217 0.0142358 0 0 0 -1.17652e-15 -3.44192e-16 -0.239213 1.28945e-18 3.77231e-19 -0.000290823 -1.94159e-15 6.63674e-15 6.09789e-28 0.001415 
8586 1 -0.0404855 -0.0156313 0.0148457 0 0 0 -5.74807e-17 7.5911e-16 -0.239213 -3.721e-19 4.91408e-18 -0.000290823 -3.412e-14 -2.58361e-15 -1.99661e-28 0.001415 
4388 1 -0.00265555 -0.0161876 0.0134721 0 0 0 5.57719e-16 -2.71882e-16 -0.239213 -5.13991e-19 2.50565e-19 -0.000290823 2.19049e-15 4.49341e-15 8.65305e-30 0.001415 
2097 1 -0.0180782 -0.0116116 0.0137728 0 0 0 1.47478e-15 2.67582e-16 -0.239213 -1.39434e-21 -2.52988e-22 -0.000290823 8.10401e-15 -4.46652e-14 -1.64093e-27 0.001415 
5435 1 0.0233242 -0.0111485 0.0147093 0 0 0 5.36818e-16 -1.02003e-15 -0.239213 -4.91051e-19 9.33071e-19 -0.000290823 -2.32612e-15 -1.22418e-15 -3.03745e-28 0.001415 
9887 1 -0.0551901 -0.00373509 0.0130688 0 0 0 3.86105e-16 -4.82239e-16 -0.239213 -5.16532e-19 6.4514e-19 -0.000290823 6.62453e-15 5.30394e-15 2.74179e-29 0.001415 
4853 1 -0.0586257 -7.65915e-05 0.0139664 0 0 0 7.50458e-16 1.23134e-15 -0.239213 -4.61385e-19 -7.57036e-19 -0.000290823 1.05542e-14 -6.43239e-15 -1.51659e-27 0.001415 
9743 1 -0.0492029 -0.00049722 0.0144716 0 0 0 6.55317e-16 7.4646e-16 -0.239213 -3.00645e-19 -3.4246e-19 -0.000290823 2.34398e-14 -2.05777e-14 1.36142e-27 0.001415 
3403 1 0.0399954 0.00144601 0.012988 0 0 0 -1.41214e-15 6.68257e-17 -0.239213 -9.29588e-18 4.39901e-19 -0.000290823 2.21303e-15 4.67652e-14 -3.77725e-28 0.001415 
3526 1 0.0549212 0.000551996 0.0133509 0 0 0 -1.47335e-15 -6.70077e-16 -0.239213 1.39299e-21 6.3353e-22 -0.000290823 -2.19838e-14 4.83372e-14 -1.36601e-27 0.001415 
3843 1 -0.0432547 0.00201405 0.0135734 0 0 0 1.21465e-15 8.27616e-16 -0.239213 -1.1484e-21 -7.82476e-22 -0.000290823 1.69877e-14 -2.49319e-14 2.01325e-27 0.001415 
2455 1 0.0236249 0.00314802 0.0148852 0 0 0 1.93055e-16 -1.21407e-16 -0.239213 1.5374e-18 -9.66828e-19 -0.000290823 4.70736e-15 7.48539e-15 -1.75028e-28 0.001415 
6238 1 0.0476834 0.00358837 0.0131089 0 0 0 1.81605e-15 -1.16847e-15 -0.239213 1.05744e-17 -6.80375e-18 -0.000290823 -4.22991e-14 -6.57413e-14 1.16755e-27 0.001415 
7479 1 0.00708078 0.00479504 0.0130157 0 0 0 -7.37998e-16 7.48376e-16 -0.239213 3.88958e-19 -3.94427e-19 -0.000290823 3.11335e-15 3.07017e-15 5.71717e-28 0.001415 
6443 1 -0.0474965 0.00682656 0.0147683 0 0 0 -8.35694e-16 1.01807e-15 -0.239213 8.46433e-19 -1.03115e-18 -0.000290823 1.69662e-14 1.39269e-14 -1.00759e-28 0.001415 
7898 1 0.0197791 0.00861083 0.0141717 0 0 0 2.85658e-16 1.36162e-15 -0.239213 -2.22661e-19 -1.06134e-18 -0.000290823 2.4483e-14 -5.13636e-15 -3.76359e-28 0.001415 
4366 1 0.0434972 0.010956 0.0131868 0 0 0 -8.16961e-16 7.36959e-16 -0.239213 6.82567e-19 -6.15725e-19 -0.000290823 4.22855e-15 4.68759e-15 -3.09465e-28 0.001415 
1176 1 0.023371 0.01534 0.0141732 0 0 0 1.79912e-17 1.52447e-15 -0.239213 -1.701e-23 -1.44133e-21 -0.000290823 2.40545e-14 -2.83882e-16 -5.20593e-30 0.001415 
4344 1 0.0486622 0.0138541 0.0134798 0 0 0 -1.30865e-15 -4.59966e-16 -0.239213 7.10343e-19 2.49672e-19 -0.000290823 -4.54446e-15 1.29295e-14 1.05781e-27 0.001415 
5822 1 0.0700663 0.01371 0.0146593 0 0 0 1.10309e-15 -1.06025e-15 -0.239213 -1.04293e-21 1.00243e-21 -0.000290823 -2.64099e-14 -2.74769e-14 9.19641e-28 0.001415 
9808 1 -0.0411335 0.0170646 0.0147045 0 0 0 1.0764e-15 -8.87756e-16 -0.239213 -1.01769e-21 8.39336e-22 -0.000290823 -3.4261e-14 -4.15413e-14 2.99056e-27 0.001415 
5629 1 -0.00809486 0.0186934 0.0133531 0 0 0 1.61131e-15 2.81877e-17 -0.239213 1.15912e-17 2.02772e-19 -0.000290823 1.39212e-15 -7.95788e-14 3.17505e-28 0.001415 
9993 1 -0.0262716 0.020692 0.0134485 0 0 0 -8.16796e-16 -7.80283e-16 -0.239213 9.36976e-19 8.9509e-19 -0.000290823 -1.3535e-14 1.41684e-14 9.20591e-28 0.001415 
1278 1 -0.00656497 0.0230388 0.0145554 0 0 0 -8.48081e-16 -3.14155e-16 -0.239213 1.09108e-18 4.04168e-19 -0.000290823 6.19566e-15 -1.67256e-14 6.93201e-29 0.001415 
3553 1 0.038325 0.0241144 0.0134507 0 0 0 -1.96308e-16 1.14842e-15 -0.239213 1.36714e-19 -7.99789e-19 -0.000290823 1.71311e-14 2.92835e-15 5.33917e-28 0.001415 
2811 1 0.0616855 0.0236687 0.0130698 0 0 0 2.46469e-16 1.25056e-15 -0.239213 -2.20407e-19 -1.11832e-18 -0.000290823 2.95389e-15 -5.82172e-16 -3.34911e-28 0.001415 
9956 1 0.047731 0.0274693 0.0132653 0 0 0 3.18139e-16 1.76688e-15 -0.239213 2.28798e-18 1.27069e-17 -0.000290823 4.05455e-14 -7.30052e-15 -7.99432e-29 0.001415 
6007 1 0.0347873 0.0296881 0.0130351 0 0 0 3.83133e-16 4.29291e-16 -0.239213 -3.62236e-22 -4.05877e-22 -0.000290823 -2.63601e-15 2.35258e-15 1.33569e-29 0.001415 
8774 1 0.0137081 0.0323084 0.0137088 0 0 0 -2.42956e-16 4.08886e-16 -0.239213 2.09744e-19 -3.52991e-19 -0.000290823 -5.20787e-15 -3.09446e-15 -3.61499e-29 0.001415 
6214 1 -0.0224995 0.0352466 0.014125 0 0 0 -2.83559e-16 -1.31843e-15 -0.239213 1.61577e-19 7.51262e-19 -0.000290823 -3.01502e-14 6.48453e-15 1.13654e-27 0.001415 
7873 1 -0.0162209 0.0354611 0.0133585 0 0 0 5.34083e-16 6.31737e-16 -0.239213 -4.38887e-19 -5.19135e-19 -0.000290823 -7.1084e-15 6.00959e-15 5.88778e-28 0.001415 
6847 1 -0.0500743 0.0395872 0.0135151 0 0 0 -1.69115e-15 7.29431e-16 -0.239213 -1.20887e-17 5.21411e-18 -0.000290823 3.95078e-14 9.1597e-14 -3.35094e-27 0.001415 