ITEM: TIMESTEP
230000
ITEM: NUMBER OF ATOMS
10248
ITEM: BOX BOUNDS ff ff ff
-0.2 0.2
-0.2 0.2
-0.01 0.5
ITEM: ATOMS id type x y z ix iy iz vx vy vz fx fy fz omegax omegay omegaz radius 
168 1 0.0237158 -0.0372269 0.00142332 0 0 0 0.0326139 0.435316 -0.00204098 -4.32831e-08 -5.77723e-07 -0.000291047 -307.729 23.0551 2.92761e-12 0.001415 
5124 1 -0.00943529 -0.0647942 0.00198198 0 0 0 -4.20358e-17 -1.47965e-17 -0.245094 -3.88725e-18 -1.3683e-18 -0.000290815 3.85282e-16 -1.09456e-15 -4.14423e-31 0.001415 
9891 1 -0.0536741 -0.00562861 0.00186645 0 0 0 2.50239e-17 -3.12545e-17 -0.245094 2.1188e-18 -2.64635e-18 -0.000290815 1.15174e-15 9.2214e-16 -3.14656e-30 0.001415 
8778 1 0.0127785 0.033873 0.00239076 0 0 0 -1.78355e-17 3.00165e-17 -0.245094 -1.68986e-18 2.84396e-18 -0.000290815 -6.86189e-16 -4.07727e-16 1.1984e-30 0.001415 
5123 1 -0.00890863 -0.0646088 0.00475635 0 0 0 4.10994e-17 1.44669e-17 -0.245094 3.88725e-18 1.3683e-18 -0.000290815 3.83832e-16 -1.09044e-15 -4.11619e-31 0.001415 
167 1 0.02366 -0.0379724 0.00421203 0 0 0 0.0225715 0.301274 0.00516417 -2.40886e-08 -3.21524e-07 -0.000291055 400.653 -30.017 1.6187e-11 0.001415 
5439 1 0.0255064 -0.015295 0.00425932 0 0 0 6.69698e-19 -1.27253e-18 -0.245094 -6.4079e-25 1.2176e-24 -0.000290815 -5.23842e-18 -2.75684e-18 2.2207e-33 0.001415 
9890 1 -0.0540531 -0.00515523 0.00463071 0 0 0 -2.4112e-17 3.01155e-17 -0.245094 -2.1188e-18 2.64635e-18 -0.000290815 1.14573e-15 9.17331e-16 -3.14688e-30 0.001415 
5818 1 0.0744051 0.00953964 0.00492625 0 0 0 2.36845e-19 -2.27647e-19 -0.245094 -2.26621e-25 2.1782e-25 -0.000290815 -2.53152e-19 -2.6338e-19 -1.71762e-34 0.001415 
4096 1 0.0493328 0.0413049 0.00381133 0 0 0 3.14329e-16 -1.06879e-16 -0.245094 2.71304e-17 -9.22493e-18 -0.000290815 -1.6045e-15 -4.71882e-15 -6.21078e-30 0.001415 
4641 1 -0.00200478 0.0474767 0.00448852 0 0 0 -2.10627e-18 1.13413e-18 -0.245094 2.01535e-24 -1.08518e-24 -0.000290815 5.34795e-18 9.932e-18 -2.46503e-33 0.001415 
166 1 0.0235599 -0.0393079 0.00685198 0 0 0 -0.011405 -0.152228 -0.0706671 9.21678e-09 1.23021e-07 -0.000290992 -76.312 5.71731 -1.31797e-11 0.001415 
8779 1 0.0136066 -0.0379801 0.00538011 0 0 0 3.45724e-19 1.57717e-19 -0.245094 -3.308e-25 -1.50909e-25 -0.000290815 1.41012e-17 -3.09105e-17 1.78117e-31 0.001415 
6552 1 -0.00600865 -0.0297033 0.00599687 0 0 0 1.93326e-18 -3.13335e-19 -0.245094 -1.84981e-24 2.9981e-25 -0.000290815 7.79976e-18 4.81239e-17 -6.91059e-32 0.001415 
1407 1 0.0135434 -0.0200891 0.00668821 0 0 0 -1.67028e-18 -4.88643e-19 -0.245094 1.59818e-24 4.6755e-25 -0.000290815 -3.62966e-18 1.24069e-17 3.22885e-33 0.001415 
8589 1 -0.0402517 -0.0187189 0.00679517 0 0 0 1.9606e-19 -2.58924e-18 -0.245094 -1.87597e-25 2.47747e-24 -0.000290815 -2.42826e-16 -1.83871e-17 -4.68152e-30 0.001415 
5438 1 0.0249608 -0.0142584 0.0068355 0 0 0 8.20535e-16 -1.55914e-15 -0.245094 1.60755e-17 -3.05458e-17 -0.000290815 -3.36601e-14 -1.77145e-14 -2.70357e-28 0.001415 
2100 1 -0.012979 -0.0106864 0.00690282 0 0 0 1.99333e-15 3.61669e-16 -0.245094 4.08476e-17 7.41135e-18 -0.000290815 3.13805e-16 -1.72953e-15 5.51652e-28 0.001415 
4516 1 0.00201022 -0.00437069 0.0054168 0 0 0 -1.79079e-18 2.13784e-18 -0.245094 1.71349e-24 -2.04556e-24 -0.000290815 1.56446e-17 1.31049e-17 -1.84135e-31 0.001415 
6447 1 -0.0515136 0.0117203 0.00523918 0 0 0 -1.27925e-18 1.55843e-18 -0.245094 1.22403e-24 -1.49116e-24 -0.000290815 3.38228e-18 2.77638e-18 -3.23413e-32 0.001415 
4347 1 0.0446345 0.0124385 0.00599596 0 0 0 -1.82701e-18 -6.42158e-19 -0.245094 1.74814e-24 6.14438e-25 -0.000290815 2.59788e-17 -7.39126e-17 -5.31696e-31 0.001415 
9996 1 -0.0293411 0.0177597 0.00595062 0 0 0 -4.27676e-18 -4.08558e-18 -0.245094 4.09215e-24 3.90922e-24 -0.000290815 -6.22709e-17 6.51849e-17 2.70788e-31 0.001415 
1281 1 -0.00910888 0.0220965 0.0063652 0 0 0 -1.73662e-18 -6.43295e-19 -0.245094 1.66166e-24 6.15526e-25 -0.000290815 -6.30567e-18 1.70226e-17 1.95878e-32 0.001415 
4221 1 0.00751144 0.0235905 0.00530905 0 0 0 6.82597e-20 -5.04483e-19 -0.245094 -6.53132e-26 4.82707e-25 -0.000290815 2.47612e-17 3.35034e-18 -8.09385e-32 0.001415 
3550 1 0.0375782 0.0284832 0.00606411 0 0 0 -3.03683e-18 1.77657e-17 -0.245094 -3.35644e-20 1.96355e-19 -0.000290815 2.12132e-16 3.62613e-17 -3.7847e-31 0.001415 
2814 1 0.0624335 0.0274639 0.00536697 0 0 0 3.59888e-19 1.82604e-18 -0.245094 -3.44353e-25 -1.74722e-24 -0.000290815 -8.29268e-17 1.63437e-17 2.33216e-31 0.001415 
8777 1 0.0130109 0.0334818 0.00518394 0 0 0 1.73059e-17 -2.91252e-17 -0.245094 1.68986e-18 -2.84396e-18 -0.000290815 -7.10537e-16 -4.22194e-16 1.15698e-30 0.001415 
484 1 0.0153265 0.0412785 0.00645462 0 0 0 7.29701e-18 -6.18494e-18 -0.245094 -6.98202e-24 5.91796e-24 -0.000290815 -1.16022e-16 -1.36883e-16 1.39084e-31 0.001415 
4097 1 0.0483957 0.0416236 0.00646262 0 0 0 -3.09782e-16 1.05333e-16 -0.245094 -2.71304e-17 9.22493e-18 -0.000290815 -1.46814e-15 -4.31779e-15 -9.53117e-30 0.001415 
4640 1 -0.000842548 0.0468509 0.00699182 0 0 0 -1.91925e-15 1.03343e-15 -0.245094 -3.57148e-17 1.92309e-17 -0.000290815 1.14527e-14 2.12695e-14 -1.36625e-27 0.001415 
7350 1 0.0388042 0.0484249 0.00669568 0 0 0 -1.55504e-20 -2.62971e-19 -0.245094 1.48792e-26 2.5162e-25 -0.000290815 -3.59509e-17 2.1259e-18 8.11247e-32 0.001415 
5122 1 -0.00838197 -0.0644234 0.00753073 0 0 0 -3.15415e-16 -1.11025e-16 -0.245094 -9.27171e-18 -3.26361e-18 -0.000290815 -7.68881e-16 2.18434e-15 -8.38331e-29 0.001415 
9219 1 -0.0350531 -0.0474779 0.00825434 0 0 0 0 0 -0.245094 0 0 -0.000290815 0 0 0 0.001415 
8295 1 0.0424827 -0.0477148 0.00852206 0 0 0 0 0 -0.245094 0 0 -0.000290815 0 0 0 0.001415 
8780 1 0.0123897 -0.0385353 0.00787406 0 0 0 4.47702e-17 2.04239e-17 -0.245094 2.80261e-19 1.27853e-19 -0.000290815 -3.55907e-15 7.80165e-15 -1.74726e-29 0.001415 
6551 1 -0.00658842 -0.0296093 0.00876525 0 0 0 5.61257e-18 -9.09665e-19 -0.245094 4.905e-20 -7.94986e-21 -0.000290815 -1.88175e-16 -1.16103e-15 7.44505e-31 0.001415 
9889 1 -0.0544321 -0.00468185 0.00739498 0 0 0 3.45973e-16 -4.32115e-16 -0.245094 9.46599e-18 -1.18229e-17 -0.000290815 -1.97766e-15 -1.58341e-15 2.24906e-29 0.001415 
4517 1 0.00302288 -0.0055796 0.00776668 0 0 0 7.29214e-19 -8.70535e-19 -0.245094 -6.97737e-25 8.32957e-25 -0.000290815 1.3512e-17 1.13185e-17 -2.53459e-31 0.001415 
3528 1 0.0516347 -0.000942708 0.00884667 0 0 0 -2.75335e-17 -1.25222e-17 -0.245094 -1.57511e-19 -7.16357e-20 -0.000290815 -2.04996e-15 4.5074e-15 -2.77075e-29 0.001415 
7477 1 0.00556963 0.00632744 0.00763558 0 0 0 -7.75853e-17 7.86763e-17 -0.245094 -3.78456e-18 3.83778e-18 -0.000290815 -3.23875e-16 -3.19384e-16 2.08745e-29 0.001415 
6446 1 -0.0505093 0.0104969 0.00758514 0 0 0 -3.97868e-17 4.84696e-17 -0.245094 -1.70476e-18 2.0768e-18 -0.000290815 -1.46382e-16 -1.20159e-16 2.2944e-31 0.001415 
5819 1 0.0733204 0.0105822 0.00732319 0 0 0 4.8541e-16 -4.6656e-16 -0.245094 1.4444e-17 -1.38831e-17 -0.000290815 2.30484e-15 2.39796e-15 9.3064e-29 0.001415 
4368 1 0.0417993 0.0124877 0.00786399 0 0 0 0 0 -0.245094 0 0 -0.000290815 0 0 0 0.001415 
4346 1 0.0459771 0.0129104 0.00844213 0 0 0 -1.62622e-17 -5.71584e-18 -0.245094 -1.24148e-19 -4.36355e-20 -0.000290815 -5.8096e-16 1.65289e-15 5.23786e-30 0.001415 
9995 1 -0.0283179 0.0187371 0.00840147 0 0 0 4.27676e-18 4.08558e-18 -0.245094 -4.09215e-24 -3.90922e-24 -0.000290815 -6.22709e-17 6.51849e-17 2.70788e-31 0.001415 
4220 1 0.00732219 0.0249892 0.00776196 0 0 0 2.92146e-18 -2.15914e-17 -0.245094 -2.79535e-24 2.06594e-23 -0.000290815 -3.99603e-15 -5.40688e-16 1.48278e-30 0.001415 
2813 1 0.0621842 0.0261988 0.00788616 0 0 0 2.48749e-18 1.26213e-17 -0.245094 2.27339e-20 1.1535e-19 -0.000290815 4.2215e-15 -8.32e-16 -1.04668e-29 0.001415 
3551 1 0.0378271 0.027027 0.00847786 0 0 0 3.03683e-18 -1.77657e-17 -0.245094 3.35644e-20 -1.96355e-19 -0.000290815 2.12132e-16 3.62613e-17 -3.7847e-31 0.001415 
8776 1 0.0132433 0.0330907 0.00797713 0 0 0 -1.27157e-18 2.14001e-18 -0.245094 -1.61489e-20 2.71781e-20 -0.000290815 1.07778e-15 6.40406e-16 2.37225e-30 0.001415 
3969 1 -0.0266131 0.0377733 0.00738244 0 0 0 -2.85685e-16 8.93757e-16 -0.245094 -7.59238e-18 2.37525e-17 -0.000290815 -6.0616e-15 -1.93756e-15 -4.22743e-29 0.001415 
7875 1 -0.0151895 0.0366812 0.00778337 0 0 0 7.27787e-18 8.60858e-18 -0.245094 -6.96371e-24 -8.23698e-24 -0.000290815 1.71392e-15 -1.44899e-15 7.72551e-30 0.001415 
485 1 0.0142511 0.04219 0.00890851 0 0 0 -7.29701e-18 6.18494e-18 -0.245094 6.98202e-24 -5.91796e-24 -0.000290815 -1.16022e-16 -1.36883e-16 1.39084e-31 0.001415 
5121 1 -0.0078553 -0.064238 0.0103051 0 0 0 2.59557e-16 9.13633e-17 -0.245094 8.40827e-18 2.95969e-18 -0.000290815 -1.35031e-15 3.83614e-15 3.55336e-28 0.001415 
6406 1 -0.013834 -0.0547628 0.00918246 0 0 0 2.47475e-17 -7.21487e-18 -0.245094 1.42678e-19 -4.15961e-20 -0.000290815 -1.025e-15 -3.51582e-15 1.81049e-29 0.001415 
4747 1 -0.048396 -0.0516837 0.00997123 0 0 0 -7.45056e-17 1.08936e-17 -0.245094 -4.41085e-19 6.44917e-20 -0.000290815 4.77608e-16 3.26655e-15 9.56543e-30 0.001415 
8904 1 0.00698378 -0.051284 0.00949061 0 0 0 0 0 -0.245094 0 0 -0.000290815 0 0 0 0.001415 
9218 1 -0.0344149 -0.0491301 0.0104616 0 0 0 -2.30975e-17 5.97873e-17 -0.245094 -2.32625e-19 6.02143e-19 -0.000290815 -1.39199e-14 -5.37767e-15 -1.336e-28 0.001415 
8294 1 0.0417911 -0.0460756 0.0107229 0 0 0 0 0 -0.245094 0 0 -0.000290815 0 0 0 0.001415 
8781 1 0.0111727 -0.0390904 0.010368 0 0 0 2.8377e-18 1.29454e-18 -0.245094 3.91437e-19 1.78571e-19 -0.000290815 -6.93118e-15 1.51935e-14 7.8608e-29 0.001415 
165 1 0.0235391 -0.0395861 0.00971317 0 0 0 -0.00268459 -0.0358327 -0.0259881 1.5263e-09 2.03724e-08 -0.000291035 -10.1218 0.758328 -1.93309e-11 0.001415 
9787 1 -0.0202299 -0.023698 0.00958041 0 0 0 -1.16208e-17 -1.44501e-17 -0.245094 -8.74711e-20 -1.08768e-19 -0.000290815 -4.93644e-16 3.96989e-16 -8.39764e-29 0.001415 
1406 1 0.0148736 -0.0197 0.00915563 0 0 0 1.67028e-18 4.88643e-19 -0.245094 -1.59818e-24 -4.6755e-25 -0.000290815 -3.62966e-18 1.24069e-17 3.22885e-33 0.001415 
8588 1 -0.0403296 -0.0176897 0.00943024 0 0 0 1.25524e-17 -1.65771e-16 -0.245094 1.18293e-19 -1.56221e-18 -0.000290815 3.06046e-14 2.31742e-15 1.82369e-28 0.001415 
4389 1 -0.00210167 -0.0164576 0.0105647 0 0 0 3.71185e-17 -1.80949e-17 -0.245094 4.97407e-19 -2.4248e-19 -0.000290815 -1.79628e-16 -3.68477e-16 -6.10414e-29 0.001415 
8820 1 0.00980992 -0.0172644 0.00975803 0 0 0 0 0 -0.245094 0 0 -0.000290815 0 0 0 0.001415 
3529 1 0.0670132 -0.0166749 0.010058 0 0 0 7.92717e-18 9.73614e-18 -0.245094 3.72675e-19 4.57718e-19 -0.000290815 -3.44782e-16 2.80722e-16 -8.08482e-29 0.001415 
4473 1 -0.0215554 -0.0144106 0.00953471 0 0 0 0 0 -0.245094 0 0 -0.000290815 0 0 0 0.001415 
5437 1 0.0244153 -0.0132218 0.00941168 0 0 0 -7.67791e-16 1.45892e-15 -0.245094 -1.50347e-17 2.85681e-17 -0.000290815 -1.97022e-14 -1.03688e-14 -3.56419e-29 0.001415 
2099 1 -0.0146787 -0.0109948 0.0091444 0 0 0 -1.92138e-15 -3.48614e-16 -0.245094 -3.89994e-17 -7.07601e-18 -0.000290815 7.98414e-16 -4.40045e-15 3.01064e-28 0.001415 
4518 1 0.00403554 -0.00678852 0.0101166 0 0 0 -5.90203e-17 7.04583e-17 -0.245094 -5.78639e-19 6.90779e-19 -0.000290815 -2.50654e-14 -2.09963e-14 -1.05207e-27 0.001415 
9888 1 -0.0548111 -0.00420847 0.0101592 0 0 0 -3.10697e-16 3.88055e-16 -0.245094 -8.82033e-18 1.10164e-17 -0.000290815 -1.80152e-15 -1.44238e-15 -2.58335e-29 0.001415 
2457 1 0.0227749 0.00368251 0.00916965 0 0 0 0 0 -0.245094 0 0 -0.000290815 0 0 0 0.001415 
1470 1 -0.0541433 0.00552442 0.0104068 0 0 0 7.16936e-17 6.90878e-17 -0.245094 6.93759e-19 6.68544e-19 -0.000290815 -2.7899e-14 2.89513e-14 -5.00039e-29 0.001415 
7478 1 0.0063252 0.00556124 0.010253 0 0 0 4.99238e-17 -5.06259e-17 -0.245094 3.36727e-18 -3.41462e-18 -0.000290815 -9.74718e-16 -9.61201e-16 -3.36794e-28 0.001415 
5545 1 -0.0302182 0.00727945 0.0105471 0 0 0 0 0 -0.245094 0 0 -0.000290815 0 0 0 0.001415 
6445 1 -0.0495051 0.00927345 0.0099311 0 0 0 3.28816e-17 -4.00575e-17 -0.245094 1.61616e-18 -1.96886e-18 -0.000290815 1.76923e-15 1.45229e-15 2.97876e-29 0.001415 
4431 1 -0.0620527 0.012605 0.00992562 0 0 0 -9.42141e-17 2.01263e-17 -0.245094 -8.7824e-19 1.87612e-19 -0.000290815 -5.97576e-15 -2.79735e-14 7.62964e-29 0.001415 
4367 1 0.0426483 0.0117219 0.0104528 0 0 0 -6.4325e-17 5.80258e-17 -0.245094 -6.62225e-19 5.97375e-19 -0.000290815 -6.02927e-15 -6.6838e-15 -4.3811e-28 0.001415 
4345 1 0.0473197 0.0133822 0.0108883 0 0 0 -3.15127e-17 -1.10761e-17 -0.245094 -5.73569e-19 -2.01598e-19 -0.000290815 2.64057e-15 -7.51271e-15 -4.21076e-28 0.001415 
5820 1 0.0722357 0.0116248 0.00972013 0 0 0 -4.66288e-16 4.4818e-16 -0.245094 -1.40623e-17 1.35162e-17 -0.000290815 5.2824e-16 5.49582e-16 5.43714e-30 0.001415 
9994 1 -0.0272948 0.0197145 0.0108523 0 0 0 -9.48994e-17 -9.06571e-17 -0.245094 -9.07411e-19 -8.66847e-19 -0.000290815 2.00112e-14 -2.09476e-14 -8.47212e-28 0.001415 
1280 1 -0.00826091 0.0224106 0.00904684 0 0 0 1.73662e-18 6.43295e-19 -0.245094 -1.66166e-24 -6.15526e-25 -0.000290815 -6.30567e-18 1.70226e-17 1.95878e-32 0.001415 
2812 1 0.0619348 0.0249338 0.0104053 0 0 0 1.81336e-17 9.20083e-17 -0.245094 1.91769e-19 9.73018e-19 -0.000290815 -9.69764e-15 1.91127e-15 1.44228e-28 0.001415 
4219 1 0.00713294 0.0263879 0.0102149 0 0 0 1.17692e-17 -8.69823e-17 -0.245094 1.6046e-19 -1.1859e-18 -0.000290815 2.32017e-14 3.13933e-15 2.03257e-28 0.001415 
3552 1 0.038076 0.0255707 0.0108916 0 0 0 -1.20387e-17 7.04277e-17 -0.245094 -1.33344e-19 7.80078e-19 -0.000290815 -1.61212e-14 -2.75571e-15 3.84717e-28 0.001415 
6216 1 -0.023401 0.0310553 0.0102843 0 0 0 -4.44283e-18 -2.06572e-17 -0.245094 -2.88806e-20 -1.34282e-19 -0.000290815 -2.58166e-15 5.55249e-16 1.22905e-29 0.001415 
8775 1 0.0134757 0.0326995 0.0107703 0 0 0 -1.40613e-17 2.36646e-17 -0.245094 -1.87453e-19 3.15476e-19 -0.000290815 8.52203e-16 5.06371e-16 -3.0591e-29 0.001415 
3968 1 -0.0261983 0.0364757 0.00986298 0 0 0 2.85685e-16 -8.93757e-16 -0.245094 7.59238e-18 -2.37525e-17 -0.000290815 -6.0616e-15 -1.93756e-15 -4.22743e-29 0.001415 
7874 1 -0.0157052 0.0360712 0.0104983 0 0 0 1.92646e-17 2.2787e-17 -0.245094 4.26526e-19 5.04514e-19 -0.000290815 2.29515e-15 -1.94037e-15 -2.34922e-28 0.001415 
9745 1 -0.0323504 0.0411674 0.00916928 0 0 0 0 0 -0.245094 0 0 -0.000290815 0 0 0 0.001415 
4098 1 0.0474587 0.0419422 0.0091139 0 0 0 1.8626e-18 -6.33325e-19 -0.245094 5.62329e-20 -1.91204e-20 -0.000290815 2.59916e-16 7.6441e-16 2.23019e-30 0.001415 
4639 1 0.000319678 0.0462251 0.00949511 0 0 0 1.8308e-15 -9.85806e-16 -0.245094 3.37091e-17 -1.81509e-17 -0.000290815 1.21472e-14 2.25593e-14 -9.88632e-28 0.001415 
7349 1 0.0388392 0.0490157 0.00946311 0 0 0 -3.31517e-18 -5.60626e-17 -0.245094 -3.75409e-20 -6.34851e-19 -0.000290815 7.16316e-15 -4.23582e-16 -6.28716e-29 0.001415 
6048 1 -0.0014895 0.0671831 0.0107776 0 0 0 -1.13639e-16 -6.82881e-18 -0.245094 -1.14223e-18 -6.8639e-20 -0.000290815 1.31337e-15 -2.18559e-14 -1.73386e-28 0.001415 
3318 1 0.0108764 -0.0748018 0.0115522 0 0 0 0 0 -0.245094 0 0 -0.000290815 0 0 0 0.001415 
6407 1 -0.0157638 -0.0542001 0.0111745 0 0 0 -2.47475e-17 7.21487e-18 -0.245094 -1.42678e-19 4.15961e-20 -0.000290815 -1.025e-15 -3.51582e-15 1.81049e-29 0.001415 
4748 1 -0.0463698 -0.05198 0.0119246 0 0 0 -1.59394e-17 2.33053e-18 -0.245094 -4.19284e-19 6.13041e-20 -0.000290815 -6.39482e-15 -4.37368e-14 2.27095e-28 0.001415 
8903 1 0.00719176 -0.0530399 0.0117003 0 0 0 -1.06887e-17 9.02389e-17 -0.245094 -1.03505e-19 8.73833e-19 -0.000290815 -2.51278e-14 -2.97636e-15 3.05575e-28 0.001415 
9217 1 -0.0337766 -0.0507822 0.0126688 0 0 0 -3.70946e-16 9.60184e-16 -0.245094 -1.41931e-18 3.67384e-18 -0.000290815 5.24167e-15 2.02501e-15 1.60041e-27 0.001415 
8421 1 -0.0125515 -0.050364 0.0113777 0 0 0 1.43893e-17 -3.84224e-17 -0.245094 2.0259e-19 -5.40957e-19 -0.000290815 4.81673e-15 1.80388e-15 -1.16506e-27 0.001415 
5040 1 0.0412118 -0.051077 0.0109548 0 0 0 0 0 -0.245094 0 0 -0.000290815 0 0 0 0.001415 
164 1 0.0235018 -0.0400837 0.0125316 0 0 0 -0.00275481 -0.0367699 -0.00478904 1.52805e-09 2.03957e-08 -0.000291047 8.21579 -0.615528 -1.82188e-11 0.001415 
7141 1 -0.0440609 -0.0300013 0.0119153 0 0 0 0 0 -0.245094 0 0 -0.000290815 0 0 0 0.001415 
6550 1 -0.00716818 -0.0295154 0.0115336 0 0 0 8.94093e-19 -1.44911e-19 -0.245094 3.38566e-19 -5.48736e-20 -0.000290815 -2.64978e-16 -1.63489e-15 -3.1905e-29 0.001415 
1113 1 0.057839 -0.0250229 0.0127456 0 0 0 1.82964e-15 9.3869e-16 -0.245094 1.04415e-17 5.35695e-18 -0.000290815 1.94343e-14 -3.78804e-14 3.02244e-28 0.001415 
9788 1 -0.0191042 -0.0222982 0.0117673 0 0 0 -5.44685e-17 -6.77298e-17 -0.245094 -6.51948e-19 -8.10677e-19 -0.000290815 2.22637e-14 -1.79045e-14 1.44868e-27 0.001415 
1405 1 0.0162037 -0.0193109 0.011623 0 0 0 -1.30545e-16 -3.81911e-17 -0.245094 -1.24866e-18 -3.65298e-19 -0.000290815 7.48302e-15 -2.55784e-14 -7.78503e-28 0.001415 
8819 1 0.00974619 -0.0192248 0.0117981 0 0 0 4.38717e-18 1.34936e-16 -0.245094 3.84363e-20 1.18218e-18 -0.000290815 -2.90518e-14 9.44562e-16 -2.72161e-28 0.001415 
3530 1 0.0663652 -0.0174708 0.0126953 0 0 0 8.54673e-16 1.04971e-15 -0.245094 1.11642e-18 1.37118e-18 -0.000290815 7.63611e-15 -6.21733e-15 5.5681e-28 0.001415 
8587 1 -0.0404076 -0.0166605 0.0120653 0 0 0 6.67907e-17 -8.82061e-16 -0.245094 2.36679e-19 -3.12566e-18 -0.000290815 -1.58097e-14 -1.19713e-15 -2.84237e-29 0.001415 
4472 1 -0.0211077 -0.0159411 0.0118726 0 0 0 -4.47524e-17 1.52976e-16 -0.245094 -3.69901e-19 1.26443e-18 -0.000290815 -3.81519e-14 -1.11611e-14 -5.66815e-28 0.001415 
5436 1 0.0238697 -0.0121851 0.0119879 0 0 0 -5.14594e-18 9.77805e-18 -0.245094 -5.54883e-19 1.05436e-18 -0.000290815 2.03097e-14 1.06885e-14 2.21394e-28 0.001415 
2098 1 -0.0163785 -0.0113032 0.011386 0 0 0 -7.1951e-17 -1.30547e-17 -0.245094 -1.8482e-18 -3.35337e-19 -0.000290815 4.84609e-16 -2.67092e-15 -2.50588e-28 0.001415 
4519 1 0.0050482 -0.00799743 0.0124664 0 0 0 -6.11407e-16 7.29897e-16 -0.245094 -2.70493e-18 3.22914e-18 -0.000290815 4.2598e-15 3.56827e-15 1.63399e-27 0.001415 
3527 1 0.053278 -0.000195356 0.0110261 0 0 0 2.75335e-17 1.25222e-17 -0.245094 1.57511e-19 7.16357e-20 -0.000290815 -2.04996e-15 4.5074e-15 -2.77075e-29 0.001415 
4852 1 -0.0576017 0.00160357 0.0117871 0 0 0 4.69648e-17 7.70593e-17 -0.245094 4.50738e-19 7.39566e-19 -0.000290815 -1.53593e-14 9.36095e-15 8.40793e-28 0.001415 
9744 1 -0.0476714 0.00124731 0.0127077 0 0 0 2.91332e-17 3.31851e-17 -0.245094 2.96383e-19 3.37605e-19 -0.000290815 -1.54002e-14 1.35198e-14 8.97568e-28 0.001415 
2456 1 0.0231999 0.00341526 0.0119548 0 0 0 -3.70829e-16 2.33204e-16 -0.245094 -1.46011e-18 9.18223e-19 -0.000290815 5.70237e-15 9.0676e-15 -3.30187e-28 0.001415 
1469 1 -0.0554428 0.00427207 0.0125866 0 0 0 7.80629e-16 7.52256e-16 -0.245094 3.1283e-18 3.0146e-18 -0.000290815 1.90986e-14 -1.9819e-14 3.13251e-29 0.001415 
6444 1 -0.0485008 0.00805 0.0122771 0 0 0 -7.39372e-17 9.00729e-17 -0.245094 -7.3324e-19 8.93258e-19 -0.000290815 -2.11877e-14 -1.73922e-14 -1.58107e-27 0.001415 
5546 1 -0.0286421 0.00814112 0.012734 0 0 0 -1.40701e-15 -7.69232e-16 -0.245094 -6.41825e-18 -3.50895e-18 -0.000290815 -3.35544e-14 6.13746e-14 -4.13015e-27 0.001415 
7897 1 0.0202104 0.0106666 0.0121299 0 0 0 2.37105e-17 1.13019e-16 -0.245094 2.17348e-19 1.03601e-18 -0.000290815 -3.62603e-14 7.60715e-15 3.13813e-29 0.001415 
4430 1 -0.0607358 0.0123237 0.0124147 0 0 0 -8.87672e-16 1.89627e-16 -0.245094 -3.46871e-18 7.40995e-19 -0.000290815 1.93067e-15 9.03776e-15 -1.12935e-28 0.001415 
5821 1 0.071151 0.0126674 0.0121171 0 0 0 -1.93592e-17 1.86074e-17 -0.245094 -3.81724e-19 3.669e-19 -0.000290815 -1.77685e-15 -1.84864e-15 -8.7627e-29 0.001415 
1279 1 -0.00741294 0.0227247 0.0117285 0 0 0 -1.00629e-16 -3.72761e-17 -0.245094 -1.04815e-18 -3.88267e-19 -0.000290815 2.68554e-17 -7.24979e-17 -1.8505e-28 0.001415 
4218 1 0.00694369 0.0277865 0.0126678 0 0 0 1.66403e-16 -1.22982e-15 -0.245094 4.0911e-19 -3.02359e-18 -0.000290815 -4.76071e-14 -6.44153e-15 3.13157e-28 0.001415 
9955 1 0.0480973 0.0295036 0.011187 0 0 0 0 0 -0.245094 0 0 -0.000290815 0 0 0 0.001415 
6215 1 -0.0229502 0.0331509 0.012132 0 0 0 -1.15243e-17 -5.35829e-17 -0.245094 -1.30384e-19 -6.06229e-19 -0.000290815 3.57124e-14 -7.68082e-15 -3.03803e-28 0.001415 
3967 1 -0.0257836 0.0351781 0.0123435 0 0 0 -3.24184e-16 1.0142e-15 -0.245094 -1.38046e-18 4.31873e-18 -0.000290815 2.0363e-14 6.50894e-15 -1.21986e-27 0.001415 
4099 1 0.0465216 0.0422608 0.0117652 0 0 0 2.79705e-17 -9.5106e-18 -0.245094 6.04191e-19 -2.05438e-19 -0.000290815 -6.67946e-16 -1.96442e-15 -4.06484e-28 0.001415 
9746 1 -0.0326219 0.0429159 0.0113779 0 0 0 1.58476e-17 -1.02064e-16 -0.245094 1.50018e-19 -9.66167e-19 -0.000290815 2.74482e-14 4.2619e-15 -5.23836e-28 0.001415 
486 1 0.0131757 0.0431015 0.0113624 0 0 0 1.13093e-16 -9.58574e-17 -0.245094 9.88807e-19 -8.38112e-19 -0.000290815 2.40239e-14 2.83434e-14 -3.87144e-28 0.001415 
4638 1 0.00148191 0.0455993 0.0119984 0 0 0 2.30826e-17 -1.2429e-17 -0.245094 1.21944e-18 -6.56617e-19 -0.000290815 -6.51967e-15 -1.21081e-14 9.21211e-28 0.001415 
7348 1 0.0388741 0.0496065 0.0122305 0 0 0 -3.93592e-17 -6.65601e-16 -0.245094 -1.63125e-19 -2.7586e-18 -0.000290815 3.33595e-15 -1.97266e-16 3.43982e-29 0.001415 
8316 1 0.0241447 0.055508 0.01193 0 0 0 0 0 -0.245094 0 0 -0.000290815 0 0 0 0.001415 
4831 1 0.0293284 0.0560787 0.0123993 0 0 0 1.031e-15 -5.73127e-16 -0.245094 4.69935e-18 -2.61233e-18 -0.000290815 -2.44138e-14 -4.39183e-14 -5.51402e-29 0.001415 
6909 1 0.00964204 0.0590336 0.0124334 0 0 0 2.27887e-16 -1.37308e-16 -0.245094 1.71942e-18 -1.036e-18 -0.000290815 3.96148e-14 6.57478e-14 -9.62814e-28 0.001415 
8757 1 0.00829498 0.0765507 0.0127883 0 0 0 0 0 -0.245094 0 0 -0.000290815 0 0 0 0.001415 
3317 1 0.00879117 -0.0741345 0.0133454 0 0 0 1.28879e-15 -4.1243e-16 -0.245094 2.15366e-18 -6.89202e-19 -0.000290815 -2.4444e-14 -7.63842e-14 -1.92807e-27 0.001415 
4537 1 0.0348065 -0.0668743 0.0133233 0 0 0 4.56658e-16 -8.89312e-16 -0.245094 -4.36946e-22 8.50924e-22 -0.000290815 9.44169e-15 4.84828e-15 -4.63239e-29 0.001415 
5120 1 -0.00732864 -0.0640527 0.0130795 0 0 0 -5.20037e-16 -1.83051e-16 -0.245094 8.63992e-19 3.04123e-19 -0.000290815 2.33847e-15 -6.64344e-15 4.87455e-28 0.001415 
8902 1 0.00739974 -0.0547957 0.01391 0 0 0 -1.69368e-16 1.42988e-15 -0.245094 1.03677e-19 -8.75288e-19 -0.000290815 1.18732e-14 1.40637e-15 1.76042e-28 0.001415 
4749 1 -0.0443437 -0.0522762 0.013878 0 0 0 -1.09448e-15 1.60026e-16 -0.245094 8.61503e-19 -1.25962e-19 -0.000290815 2.3007e-15 1.57354e-14 2.75203e-30 0.001415 
6408 1 -0.0176936 -0.0536375 0.0131666 0 0 0 2.94349e-15 -8.58141e-16 -0.245094 2.20786e-17 -6.43676e-18 -0.000290815 -3.39251e-14 -1.16365e-13 -4.10813e-27 0.001415 
5039 1 0.0393096 -0.0515993 0.0129841 0 0 0 1.80986e-15 4.96952e-16 -0.245094 1.00733e-17 2.76593e-18 -0.000290815 1.76096e-14 -6.4133e-14 2.77843e-27 0.001415 
8420 1 -0.0130316 -0.0490822 0.0138547 0 0 0 4.66683e-16 -1.24614e-15 -0.245094 -2.03051e-19 5.42186e-19 -0.000290815 -1.06617e-14 -3.99283e-15 9.91946e-28 0.001415 
8293 1 0.0410995 -0.0444363 0.0129237 0 0 0 7.06545e-16 -1.67464e-15 -0.245094 2.72232e-18 -6.4524e-18 -0.000290815 -1.09981e-13 -4.64017e-14 -5.11341e-28 0.001415 
8782 1 0.00995582 -0.0396456 0.012862 0 0 0 1.05554e-15 4.81532e-16 -0.245094 -6.72754e-19 -3.06906e-19 -0.000290815 1.16776e-14 -2.55978e-14 -1.00973e-27 0.001415 
1765 1 -0.00582286 -0.0341936 0.0136168 0 0 0 1.2723e-15 -3.98151e-16 -0.245094 -1.21738e-21 3.80964e-22 -0.000290815 -1.59984e-14 -5.11232e-14 4.64329e-28 0.001415 
7142 1 -0.0430179 -0.0310366 0.0143339 0 0 0 -9.6733e-16 9.6017e-16 -0.245094 9.25574e-22 -9.18723e-22 -0.000290815 2.60938e-14 2.62884e-14 -1.61897e-28 0.001415 
6549 1 -0.00774795 -0.0294214 0.014302 0 0 0 6.49812e-16 -1.05319e-16 -0.245094 -3.88244e-19 6.29252e-20 -0.000290815 8.40268e-16 5.18439e-15 6.20264e-29 0.001415 
2898 1 -0.0015393 -0.0260351 0.013889 0 0 0 8.47842e-16 -1.67372e-16 -0.245094 -8.11244e-22 1.60147e-22 -0.000290815 -5.03177e-16 -2.5489e-15 -8.95314e-29 0.001415 
2604 1 -0.0264828 -0.0239558 0.0136135 0 0 0 1.97826e-15 -8.61324e-17 -0.245094 1.22944e-17 -5.35291e-19 -0.000290815 -4.09476e-15 -9.40471e-14 -1.287e-28 0.001415 
7959 1 -0.0480224 -0.0227988 0.0142955 0 0 0 -1.34106e-15 8.36452e-16 -0.245094 1.28317e-21 -8.00345e-22 -0.000290815 2.46519e-14 3.95235e-14 2.3802e-27 0.001415 
8818 1 0.00968245 -0.0211851 0.0138382 0 0 0 4.33673e-17 1.33384e-15 -0.245094 -3.8482e-20 -1.18359e-18 -0.000290815 5.86665e-15 -1.90743e-16 -1.56397e-28 0.001415 
9789 1 -0.0179785 -0.0208985 0.0139542 0 0 0 -9.77186e-16 -1.2151e-15 -0.245094 7.40417e-19 9.20685e-19 -0.000290815 -2.01475e-14 1.62027e-14 4.44788e-28 0.001415 
4471 1 -0.0206599 -0.0174716 0.0142106 0 0 0 -3.22699e-16 1.10308e-15 -0.245094 3.70253e-19 -1.26563e-18 -0.000290815 -3.3169e-15 -9.70342e-16 -2.59363e-28 0.001415 
1404 1 0.0175339 -0.0189217 0.0140905 0 0 0 -1.15083e-15 -3.36679e-16 -0.245094 1.24989e-18 3.65656e-19 -0.000290815 -5.0295e-16 1.71918e-15 4.48429e-28 0.001415 
8586 1 -0.0404855 -0.0156313 0.0147004 0 0 0 -6.48292e-17 8.56158e-16 -0.245094 -3.54986e-19 4.68806e-18 -0.000290815 -4.69071e-14 -3.55186e-15 -2.03566e-28 0.001415 
4388 1 -0.00265555 -0.0161876 0.0133268 0 0 0 5.47485e-16 -2.66893e-16 -0.245094 -4.97966e-19 2.42753e-19 -0.000290815 1.98482e-15 4.07153e-15 -7.66465e-30 0.001415 
2097 1 -0.0180782 -0.0116116 0.0136275 0 0 0 1.47475e-15 2.67577e-16 -0.245094 -1.41109e-21 -2.56027e-22 -0.000290815 8.10375e-15 -4.46637e-14 -1.64087e-27 0.001415 
5435 1 0.0233242 -0.0111485 0.014564 0 0 0 5.26935e-16 -1.00126e-15 -0.245094 -4.86464e-19 9.24354e-19 -0.000290815 -1.98331e-15 -1.04376e-15 -3.64358e-28 0.001415 
9887 1 -0.0551901 -0.00373509 0.0129235 0 0 0 3.74444e-16 -4.67675e-16 -0.245094 -6.46052e-19 8.06908e-19 -0.000290815 6.3155e-15 5.05651e-15 -7.39272e-29 0.001415 
4853 1 -0.0586257 -7.65915e-05 0.0138212 0 0 0 7.41227e-16 1.2162e-15 -0.245094 -4.51492e-19 -7.40804e-19 -0.000290815 7.80687e-15 -4.758e-15 -1.23681e-27 0.001415 
9743 1 -0.0492029 -0.00049722 0.0143263 0 0 0 6.49273e-16 7.39576e-16 -0.245094 -2.97032e-19 -3.38344e-19 -0.000290815 1.9917e-14 -1.74852e-14 1.90341e-27 0.001415 
3403 1 0.0399954 0.00144601 0.0128427 0 0 0 -1.59521e-15 7.54886e-17 -0.245094 -8.81559e-18 4.17172e-19 -0.000290815 3.02815e-15 6.39901e-14 -5.00732e-28 0.001415 
3526 1 0.0549212 0.000551996 0.0132056 0 0 0 -1.47332e-15 -6.70064e-16 -0.245094 1.40972e-21 6.4114e-22 -0.000290815 -2.1983e-14 4.83357e-14 -1.36597e-27 0.001415 
3843 1 -0.0432547 0.00201405 0.0134281 0 0 0 1.21462e-15 8.276e-16 -0.245094 -1.16219e-21 -7.91876e-22 -0.000290815 1.69871e-14 -2.49311e-14 2.01318e-27 0.001415 
2455 1 0.0236249 0.00314802 0.0147399 0 0 0 2.23352e-16 -1.4046e-16 -0.245094 1.46025e-18 -9.18312e-19 -0.000290815 6.34599e-15 1.00911e-14 -2.84975e-28 0.001415 
6238 1 0.0476834 0.00358837 0.0129636 0 0 0 2.02392e-15 -1.30222e-15 -0.245094 1.00008e-17 -6.43466e-18 -0.000290815 -5.41862e-14 -8.42164e-14 8.04874e-28 0.001415 
7479 1 0.00708078 0.00479504 0.0128704 0 0 0 -7.29905e-16 7.40169e-16 -0.245094 4.18013e-19 -4.23891e-19 -0.000290815 2.91079e-15 2.87043e-15 4.02395e-28 0.001415 
6443 1 -0.0474965 0.00682656 0.014623 0 0 0 -8.18813e-16 9.97507e-16 -0.245094 8.22705e-19 -1.00225e-18 -0.000290815 1.27601e-14 1.04743e-14 -2.68122e-28 0.001415 
7898 1 0.0197791 0.00861083 0.0140264 0 0 0 2.81206e-16 1.3404e-15 -0.245094 -2.1764e-19 -1.0374e-18 -0.000290815 1.69821e-14 -3.56273e-15 -4.30477e-28 0.001415 
4366 1 0.0434972 0.010956 0.0130415 0 0 0 -8.03353e-16 7.24682e-16 -0.245094 6.63055e-19 -5.98124e-19 -0.000290815 3.36206e-15 3.72704e-15 -4.37989e-28 0.001415 
1176 1 0.023371 0.01534 0.0140279 0 0 0 1.79909e-17 1.52445e-15 -0.245094 -1.72143e-23 -1.45864e-21 -0.000290815 2.40537e-14 -2.83873e-16 -5.20576e-30 0.001415 
4344 1 0.0486622 0.0138541 0.0133345 0 0 0 -1.2944e-15 -4.54956e-16 -0.245094 6.99001e-19 2.45685e-19 -0.000290815 -3.70059e-15 1.05286e-14 8.32797e-28 0.001415 
5822 1 0.0700663 0.01371 0.014514 0 0 0 1.10307e-15 -1.06023e-15 -0.245094 -1.05545e-21 1.01447e-21 -0.000290815 -2.6409e-14 -2.7476e-14 9.19611e-28 0.001415 
9808 1 -0.0411335 0.0170646 0.0145592 0 0 0 1.07638e-15 -8.87739e-16 -0.245094 -1.02992e-21 8.49419e-22 -0.000290815 -3.42599e-14 -4.154e-14 2.99047e-27 0.001415 
5629 1 -0.00809486 0.0186934 0.0132078 0 0 0 1.83968e-15 3.21826e-17 -0.245094 1.1e-17 1.9243e-19 -0.000290815 1.75114e-15 -1.00102e-13 4.27477e-28 0.001415 
9993 1 -0.0262716 0.020692 0.0133032 0 0 0 -7.98133e-16 -7.62454e-16 -0.245094 9.08266e-19 8.67663e-19 -0.000290815 -9.65046e-15 1.01021e-14 3.41594e-28 0.001415 
1278 1 -0.00656497 0.0230388 0.0144101 0 0 0 -8.26442e-16 -3.06139e-16 -0.245094 1.04904e-18 3.88596e-19 -0.000290815 5.7062e-15 -1.54043e-14 2.02481e-29 0.001415 
3553 1 0.038325 0.0241144 0.0133054 0 0 0 -1.93575e-16 1.13243e-15 -0.245094 1.33541e-19 -7.81229e-19 -0.000290815 1.39267e-14 2.3806e-15 6.55176e-28 0.001415 
2811 1 0.0616855 0.0236687 0.0129245 0 0 0 2.42068e-16 1.22823e-15 -0.245094 -2.14754e-19 -1.08964e-18 -0.000290815 1.55175e-16 -3.05829e-17 -2.24339e-28 0.001415 
9956 1 0.047731 0.0274693 0.01312 0 0 0 3.6314e-16 2.0168e-15 -0.245094 2.16481e-18 1.20229e-17 -0.000290815 5.57491e-14 -1.0038e-14 3.47338e-28 0.001415 
6007 1 0.0347873 0.0296881 0.0128898 0 0 0 3.83126e-16 4.29283e-16 -0.245094 -3.66588e-22 -4.10753e-22 -0.000290815 -2.63592e-15 2.3525e-15 1.33565e-29 0.001415 
8774 1 0.0137081 0.0323084 0.0135635 0 0 0 -2.38773e-16 4.01847e-16 -0.245094 2.03845e-19 -3.43063e-19 -0.000290815 -5.0715e-15 -3.01344e-15 -7.25232e-29 0.001415 
6214 1 -0.0224995 0.0352466 0.0139797 0 0 0 -2.80311e-16 -1.30333e-15 -0.245094 1.59548e-19 7.41829e-19 -0.000290815 -2.20157e-14 4.735e-15 1.07782e-27 0.001415 
7873 1 -0.0162209 0.0354611 0.0132132 0 0 0 5.25327e-16 6.21379e-16 -0.245094 -4.27047e-19 -5.0513e-19 -0.000290815 -6.61439e-15 5.59194e-15 5.45329e-28 0.001415 
6847 1 -0.0500743 0.0395872 0.0133699 0 0 0 -1.92919e-15 8.32102e-16 -0.245094 -1.14615e-17 4.9436e-18 -0.000290815 5.04576e-14 1.16984e-13 -3.61947e-27 0.001415 