ITEM: TIMESTEP
220000
ITEM: NUMBER OF ATOMS
10248
ITEM: BOX BOUNDS ff ff ff
-0.2 0.2
-0.2 0.2
-0.01 0.5
ITEM: ATOMS id type x y z ix iy iz vx vy vz fx fy fz omegax omegay omegaz radius 
168 1 0.0237093 -0.037314 0.00142354 0 0 0 0.0326142 0.43532 -7.8994e-05 -4.32834e-08 -5.77727e-07 -0.000291049 -307.732 23.0554 2.92764e-12 0.001415 
5124 1 -0.00943529 -0.0647942 0.0020308 0 0 0 -2.26185e-17 -7.96164e-18 -0.243134 -2.31267e-18 -8.14052e-19 -0.000290818 3.05888e-16 -8.69008e-16 -1.14665e-31 0.001415 
9891 1 -0.0536741 -0.00562861 0.00191527 0 0 0 1.47846e-17 -1.84658e-17 -0.243134 1.23293e-18 -1.53992e-18 -0.000290818 8.47597e-16 6.7863e-16 -1.00092e-30 0.001415 
8778 1 0.0127785 0.033873 0.00243958 0 0 0 -9.40959e-18 1.5836e-17 -0.243134 -9.98819e-19 1.68098e-18 -0.000290818 -5.47133e-16 -3.25101e-16 5.98817e-31 0.001415 
5123 1 -0.00890863 -0.0646088 0.00480517 0 0 0 2.16822e-17 7.63206e-18 -0.243134 2.31267e-18 8.14052e-19 -0.000290818 3.04439e-16 -8.64891e-16 -1.11861e-31 0.001415 
167 1 0.0236555 -0.0380327 0.0042108 0 0 0 0.0225716 0.301276 0.00712621 -2.40907e-08 -3.21551e-07 -0.000291057 400.657 -30.0173 1.61872e-11 0.001415 
5439 1 0.0255064 -0.015295 0.00430815 0 0 0 6.69702e-19 -1.27253e-18 -0.243134 -6.38254e-25 1.21278e-24 -0.000290818 -5.23847e-18 -2.75687e-18 2.22072e-33 0.001415 
9890 1 -0.0540531 -0.00515523 0.00467953 0 0 0 -1.38727e-17 1.73267e-17 -0.243134 -1.23294e-18 1.53992e-18 -0.000290818 8.41591e-16 6.73821e-16 -1.00124e-30 0.001415 
5818 1 0.0744051 0.00953964 0.00497507 0 0 0 2.36846e-19 -2.27649e-19 -0.243134 -2.25724e-25 2.16959e-25 -0.000290818 -2.53155e-19 -2.63383e-19 -1.71764e-34 0.001415 
4096 1 0.0493328 0.0413049 0.00386016 0 0 0 1.49771e-16 -5.09255e-17 -0.243134 2.303e-17 -7.8307e-18 -0.000290818 -1.43137e-15 -4.20963e-15 2.42837e-30 0.001415 
4641 1 -0.00200478 0.0474767 0.00453734 0 0 0 -2.10628e-18 1.13414e-18 -0.243134 2.00737e-24 -1.08088e-24 -0.000290818 5.348e-18 9.9321e-18 -2.46506e-33 0.001415 
166 1 0.0235622 -0.0392775 0.00686592 0 0 0 -0.011405 -0.152229 -0.0687055 9.19887e-09 1.22782e-07 -0.000290994 -76.3128 5.71737 -1.31799e-11 0.001415 
8779 1 0.0136066 -0.0379801 0.00542894 0 0 0 2.94324e-19 1.34269e-19 -0.243134 -2.80503e-25 -1.27964e-25 -0.000290818 8.66499e-18 -1.89941e-17 6.93298e-32 0.001415 
6552 1 -0.00600865 -0.0297033 0.00604569 0 0 0 1.3451e-18 -2.18008e-19 -0.243134 7.25197e-21 -1.17537e-21 -0.000290818 3.20987e-18 1.98047e-17 -2.3917e-32 0.001415 
1407 1 0.0135434 -0.0200891 0.00673703 0 0 0 -1.21106e-18 -3.54299e-19 -0.243134 1.15419e-24 3.37662e-25 -0.000290818 -1.55551e-18 5.31703e-18 2.20118e-33 0.001415 
8589 1 -0.0402517 -0.0187189 0.00684399 0 0 0 1.24654e-19 -1.64622e-18 -0.243134 -1.188e-25 1.56892e-24 -0.000290818 -1.05238e-16 -7.96878e-18 -1.95487e-30 0.001415 
5438 1 0.0249608 -0.0142584 0.00688432 0 0 0 7.02362e-16 -1.33459e-15 -0.243134 1.765e-17 -3.35376e-17 -0.000290818 -2.92297e-14 -1.53828e-14 -1.95303e-28 0.001415 
2100 1 -0.012979 -0.0106864 0.00695164 0 0 0 1.69354e-15 3.07275e-16 -0.243134 4.46154e-17 8.09499e-18 -0.000290818 5.22615e-16 -2.88038e-15 4.62903e-28 0.001415 
4516 1 0.00201022 -0.00437069 0.00546562 0 0 0 -1.78534e-18 2.13134e-18 -0.243134 -6.83158e-21 8.15553e-21 -0.000290818 1.47471e-17 1.23531e-17 -1.72443e-31 0.001415 
6447 1 -0.0515136 0.0117203 0.00528801 0 0 0 -1.27926e-18 1.55844e-18 -0.243134 1.21919e-24 -1.48526e-24 -0.000290818 3.38231e-18 2.77641e-18 -3.23416e-32 0.001415 
4347 1 0.0446345 0.0124385 0.00604478 0 0 0 -1.31022e-18 -4.60516e-19 -0.243134 1.24869e-24 4.38891e-25 -0.000290818 1.07995e-17 -3.07257e-17 -2.25648e-31 0.001415 
9996 1 -0.0293411 0.0177597 0.00599944 0 0 0 -2.95092e-18 -2.81901e-18 -0.243134 -6.36884e-20 -6.08413e-20 -0.000290818 -2.63437e-17 2.75765e-17 1.60778e-31 0.001415 
1281 1 -0.00910888 0.0220965 0.00641402 0 0 0 -1.2389e-18 -4.58926e-19 -0.243134 1.18072e-24 4.37375e-25 -0.000290818 -2.77753e-18 7.49814e-18 4.18217e-33 0.001415 
4221 1 0.00751144 0.0235905 0.00535787 0 0 0 6.82602e-20 -5.04487e-19 -0.243134 -6.50548e-26 4.80797e-25 -0.000290818 2.47615e-17 3.35038e-18 -8.09394e-32 0.001415 
3550 1 0.0375782 0.0284832 0.00611293 0 0 0 -1.99876e-18 1.1693e-17 -0.243134 -1.27329e-19 7.44888e-19 -0.000290818 2.19695e-16 3.75541e-17 1.64508e-32 0.001415 
2814 1 0.0624335 0.0274639 0.00541579 0 0 0 2.58155e-19 1.30986e-18 -0.243134 -2.46032e-25 -1.24835e-24 -0.000290818 -3.40217e-17 6.70521e-18 7.73168e-32 0.001415 
8777 1 0.0130109 0.0334818 0.00523276 0 0 0 9.0481e-18 -1.52276e-17 -0.243134 9.9882e-19 -1.68098e-18 -0.000290818 -5.54732e-16 -3.29617e-16 5.83279e-31 0.001415 
484 1 0.0153265 0.0412785 0.00650344 0 0 0 4.89098e-18 -4.14559e-18 -0.243134 2.3114e-19 -1.95914e-19 -0.000290818 -4.68458e-17 -5.52688e-17 1.26508e-31 0.001415 
4097 1 0.0483957 0.0416236 0.00651144 0 0 0 -1.47047e-16 4.99991e-17 -0.243134 -2.2903e-17 7.78751e-18 -0.000290818 -1.37663e-15 -4.04866e-15 1.68207e-30 0.001415 
4640 1 -0.000842548 0.0468509 0.00704064 0 0 0 -1.65782e-15 8.92666e-16 -0.243134 -3.91585e-17 2.10851e-17 -0.000290818 9.26042e-15 1.71981e-14 -1.0974e-27 0.001415 
7350 1 0.0388042 0.0484249 0.00674451 0 0 0 -1.18944e-20 -2.01145e-19 -0.243134 1.13358e-26 1.91699e-25 -0.000290818 -1.8729e-17 1.10751e-18 3.07487e-32 0.001415 
5122 1 -0.00838197 -0.0644234 0.00757955 0 0 0 -2.45145e-16 -8.62903e-17 -0.243134 -1.03455e-17 -3.6416e-18 -0.000290818 -6.72795e-16 1.91137e-15 -6.51337e-29 0.001415 
9219 1 -0.0350531 -0.0474779 0.00830317 0 0 0 0 0 -0.243134 0 0 -0.000290818 0 0 0 0.001415 
8295 1 0.0424827 -0.0477148 0.00857088 0 0 0 0 0 -0.243134 0 0 -0.000290818 0 0 0 0.001415 
8780 1 0.0123897 -0.0385353 0.00792288 0 0 0 4.29311e-17 1.95849e-17 -0.243134 2.80627e-19 1.28021e-19 -0.000290818 -3.43972e-15 7.54003e-15 -1.72536e-29 0.001415 
6551 1 -0.00658842 -0.0296093 0.00881408 0 0 0 5.87588e-18 -9.52342e-19 -0.243134 4.0129e-20 -6.50397e-21 -0.000290818 -1.8329e-16 -1.13089e-15 5.17485e-31 0.001415 
9889 1 -0.0544321 -0.00468185 0.0074438 0 0 0 2.76114e-16 -3.44862e-16 -0.243134 1.03153e-17 -1.28837e-17 -0.000290818 -2.48511e-15 -1.9897e-15 3.38134e-29 0.001415 
4517 1 0.00302288 -0.0055796 0.00781551 0 0 0 1.78534e-18 -2.13134e-18 -0.243134 6.83158e-21 -8.15553e-21 -0.000290818 1.47471e-17 1.23531e-17 -1.72443e-31 0.001415 
3528 1 0.0516347 -0.000942708 0.00889549 0 0 0 -2.64662e-17 -1.20368e-17 -0.243134 -1.59155e-19 -7.23838e-20 -0.000290818 -1.87438e-15 4.12133e-15 -2.40893e-29 0.001415 
7477 1 0.00556963 0.00632744 0.00768441 0 0 0 -4.56994e-17 4.6342e-17 -0.243134 -4.60058e-18 4.66527e-18 -0.000290818 -2.55598e-16 -2.52053e-16 1.42874e-29 0.001415 
6446 1 -0.0505093 0.0104969 0.00763396 0 0 0 -2.2713e-17 2.76697e-17 -0.243134 -2.36372e-18 2.87957e-18 -0.000290818 1.38991e-16 1.14092e-16 2.79971e-30 0.001415 
5819 1 0.0733204 0.0105822 0.00737201 0 0 0 3.75669e-16 -3.6108e-16 -0.243134 1.62248e-17 -1.55948e-17 -0.000290818 1.07462e-15 1.11804e-15 8.88668e-29 0.001415 
4368 1 0.0417993 0.0124877 0.00791281 0 0 0 0 0 -0.243134 0 0 -0.000290818 0 0 0 0.001415 
4346 1 0.0459771 0.0129104 0.00849095 0 0 0 -1.59479e-17 -5.60537e-18 -0.243134 -1.22473e-19 -4.30468e-20 -0.000290818 -5.86505e-16 1.66867e-15 3.60791e-30 0.001415 
9995 1 -0.0283179 0.0187371 0.00845029 0 0 0 2.95092e-18 2.81901e-18 -0.243134 6.36884e-20 6.08413e-20 -0.000290818 -2.63437e-17 2.75765e-17 1.60778e-31 0.001415 
4220 1 0.00732219 0.0249892 0.00781078 0 0 0 2.5907e-18 -1.91469e-17 -0.243134 2.50279e-20 -1.84972e-19 -0.000290818 -3.65164e-15 -4.9409e-16 1.04789e-30 0.001415 
2813 1 0.0621842 0.0261988 0.00793498 0 0 0 2.43772e-18 1.23688e-17 -0.243134 2.22255e-20 1.1277e-19 -0.000290818 3.83953e-15 -7.56719e-16 -6.10175e-30 0.001415 
3551 1 0.0378271 0.027027 0.00852669 0 0 0 1.99876e-18 -1.1693e-17 -0.243134 1.27329e-19 -7.44888e-19 -0.000290818 2.19695e-16 3.75541e-17 1.64508e-32 0.001415 
8776 1 0.0132433 0.0330907 0.00802595 0 0 0 -1.33321e-18 2.24374e-18 -0.243134 -1.54605e-20 2.60194e-20 -0.000290818 1.00412e-15 5.96638e-16 1.89387e-30 0.001415 
3969 1 -0.0266131 0.0377733 0.00743126 0 0 0 -2.28847e-16 7.1594e-16 -0.243134 -8.39503e-18 2.62636e-17 -0.000290818 -6.11592e-15 -1.95492e-15 -2.86562e-30 0.001415 
7875 1 -0.0151895 0.0366812 0.00783219 0 0 0 6.77285e-18 8.01122e-18 -0.243134 5.25132e-20 6.21149e-20 -0.000290818 1.61886e-15 -1.36862e-15 7.05053e-30 0.001415 
485 1 0.0142511 0.04219 0.00895733 0 0 0 -4.89098e-18 4.14559e-18 -0.243134 -2.3114e-19 1.95914e-19 -0.000290818 -4.68458e-17 -5.52688e-17 1.26508e-31 0.001415 
5121 1 -0.0078553 -0.064238 0.0103539 0 0 0 1.94948e-16 6.86212e-17 -0.243134 9.53012e-18 3.35457e-18 -0.000290818 -1.26491e-15 3.59353e-15 3.16009e-28 0.001415 
6406 1 -0.013834 -0.0547628 0.00923128 0 0 0 2.3781e-17 -6.93309e-18 -0.243134 1.44074e-19 -4.20032e-20 -0.000290818 -9.36954e-16 -3.21382e-15 1.7693e-29 0.001415 
4747 1 -0.048396 -0.0516837 0.01002 0 0 0 -7.15214e-17 1.04573e-17 -0.243134 -4.44282e-19 6.49591e-20 -0.000290818 3.8059e-16 2.60301e-15 7.84676e-30 0.001415 
8904 1 0.00698378 -0.051284 0.00953943 0 0 0 0 0 -0.243134 0 0 -0.000290818 0 0 0 0.001415 
9218 1 -0.0344149 -0.0491301 0.0105104 0 0 0 -2.15468e-17 5.57732e-17 -0.243134 -2.27406e-19 5.88634e-19 -0.000290818 -1.29412e-14 -4.99956e-15 -9.55234e-29 0.001415 
8294 1 0.0417911 -0.0460756 0.0107717 0 0 0 0 0 -0.243134 0 0 -0.000290818 0 0 0 0.001415 
8781 1 0.0111727 -0.0390904 0.0104168 0 0 0 1.87785e-19 8.56663e-20 -0.243134 3.95338e-19 1.80351e-19 -0.000290818 -6.51214e-15 1.42749e-14 6.24201e-29 0.001415 
165 1 0.0235396 -0.039579 0.00971817 0 0 0 -0.00268461 -0.0358329 -0.0240262 1.52049e-09 2.02948e-08 -0.000291036 -10.1219 0.758336 -1.93311e-11 0.001415 
9787 1 -0.0202299 -0.023698 0.00962923 0 0 0 -1.10365e-17 -1.37235e-17 -0.243134 -8.58842e-20 -1.06794e-19 -0.000290818 -5.47628e-16 4.40403e-16 -7.11424e-29 0.001415 
1406 1 0.0148736 -0.0197 0.00920445 0 0 0 1.21106e-18 3.54299e-19 -0.243134 -1.15419e-24 -3.37662e-25 -0.000290818 -1.55551e-18 5.31703e-18 2.20118e-33 0.001415 
8588 1 -0.0403296 -0.0176897 0.00947906 0 0 0 1.18305e-17 -1.56238e-16 -0.243134 1.16995e-19 -1.54507e-18 -0.000290818 2.84927e-14 2.1575e-15 1.80401e-28 0.001415 
4389 1 -0.00210167 -0.0164576 0.0106135 0 0 0 3.3748e-17 -1.64518e-17 -0.243134 5.02971e-19 -2.45192e-19 -0.000290818 -1.08647e-16 -2.2287e-16 -5.61683e-29 0.001415 
8820 1 0.00980992 -0.0172644 0.00980686 0 0 0 0 0 -0.243134 0 0 -0.000290818 0 0 0 0.001415 
3529 1 0.0670132 -0.0166749 0.0101068 0 0 0 5.4234e-18 6.66101e-18 -0.243134 3.70121e-19 4.54582e-19 -0.000290818 -2.54708e-16 2.07383e-16 -5.46549e-29 0.001415 
4473 1 -0.0215554 -0.0144106 0.00958353 0 0 0 0 0 -0.243134 0 0 -0.000290818 0 0 0 0.001415 
5437 1 0.0244153 -0.0132218 0.0094605 0 0 0 -6.56302e-16 1.24707e-15 -0.243134 -1.67082e-17 3.17481e-17 -0.000290818 -1.75116e-14 -9.21591e-15 3.47541e-29 0.001415 
2099 1 -0.0146787 -0.0109948 0.00919322 0 0 0 -1.63336e-15 -2.96355e-16 -0.243134 -4.29738e-17 -7.79713e-18 -0.000290818 1.01956e-15 -5.61928e-15 2.63136e-28 0.001415 
4518 1 0.00403554 -0.00678852 0.0101654 0 0 0 -5.62242e-17 6.71204e-17 -0.243134 -5.65383e-19 6.74953e-19 -0.000290818 -2.35157e-14 -1.96982e-14 -9.26223e-28 0.001415 
9888 1 -0.0548111 -0.00420847 0.0102081 0 0 0 -2.4503e-16 3.06039e-16 -0.243134 -9.71704e-18 1.21364e-17 -0.000290818 -2.34728e-15 -1.87935e-15 2.15783e-29 0.001415 
2457 1 0.0227749 0.00368251 0.00921847 0 0 0 0 0 -0.243134 0 0 -0.000290818 0 0 0 0.001415 
1470 1 -0.0541433 0.00552442 0.0104556 0 0 0 6.70646e-17 6.4627e-17 -0.243134 6.78972e-19 6.54294e-19 -0.000290818 -2.60446e-14 2.70269e-14 -1.35877e-28 0.001415 
7478 1 0.0063252 0.00556124 0.0103018 0 0 0 2.08073e-17 -2.10999e-17 -0.243134 4.19636e-18 -4.25537e-18 -0.000290818 -7.12935e-16 -7.03049e-16 -2.86003e-28 0.001415 
5545 1 -0.0302182 0.00727945 0.010596 0 0 0 0 0 -0.243134 0 0 -0.000290818 0 0 0 0.001415 
6445 1 -0.0495051 0.00927345 0.00997992 0 0 0 1.63692e-17 -1.99415e-17 -0.243134 2.2864e-18 -2.78537e-18 -0.000290818 1.9133e-15 1.57055e-15 2.89139e-29 0.001415 
4431 1 -0.0620527 0.012605 0.00997445 0 0 0 -8.83486e-17 1.88732e-17 -0.243134 -8.61187e-19 1.83969e-19 -0.000290818 -5.56787e-15 -2.60641e-14 6.81156e-29 0.001415 
4367 1 0.0426483 0.0117219 0.0105016 0 0 0 -5.98395e-17 5.39796e-17 -0.243134 -6.69059e-19 6.0354e-19 -0.000290818 -5.73054e-15 -6.35264e-15 -3.93098e-28 0.001415 
4345 1 0.0473197 0.0133822 0.0109371 0 0 0 -2.76283e-17 -9.7108e-18 -0.243134 -5.79405e-19 -2.03649e-19 -0.000290818 2.34838e-15 -6.6814e-15 -3.32084e-28 0.001415 
5820 1 0.0722357 0.0116248 0.00976895 0 0 0 -3.58903e-16 3.44965e-16 -0.243134 -1.59084e-17 1.52907e-17 -0.000290818 -7.15294e-16 -7.44193e-16 2.31914e-29 0.001415 
9994 1 -0.0272948 0.0197145 0.0109011 0 0 0 -8.87505e-17 -8.47831e-17 -0.243134 -9.17517e-19 -8.76501e-19 -0.000290818 1.87048e-14 -1.958e-14 -6.58945e-28 0.001415 
1280 1 -0.00826091 0.0224106 0.00909566 0 0 0 1.2389e-18 4.58926e-19 -0.243134 -1.18072e-24 -4.37375e-25 -0.000290818 -2.77753e-18 7.49814e-18 4.18217e-33 0.001415 
2812 1 0.0619348 0.0249338 0.0104542 0 0 0 1.68329e-17 8.54087e-17 -0.243134 1.94269e-19 9.85707e-19 -0.000290818 -9.16868e-15 1.80702e-15 1.13349e-28 0.001415 
4219 1 0.00713294 0.0263879 0.0102637 0 0 0 1.10263e-17 -8.14918e-17 -0.243134 1.32941e-19 -9.82518e-19 -0.000290818 2.13433e-14 2.88788e-15 2.07628e-28 0.001415 
3552 1 0.038076 0.0255707 0.0109404 0 0 0 -1.11364e-17 6.5149e-17 -0.243134 -1.34482e-19 7.86733e-19 -0.000290818 -1.49923e-14 -2.56274e-15 3.44634e-28 0.001415 
6216 1 -0.023401 0.0310553 0.0103331 0 0 0 -4.24834e-18 -1.97529e-17 -0.243134 -2.88218e-20 -1.34009e-19 -0.000290818 -2.32166e-15 4.99329e-16 9.58226e-30 0.001415 
8775 1 0.0134757 0.0326995 0.0108191 0 0 0 -1.27888e-17 2.15231e-17 -0.243134 -1.90205e-19 3.20108e-19 -0.000290818 7.16703e-16 4.25858e-16 -1.58289e-29 0.001415 
3968 1 -0.0261983 0.0364757 0.0099118 0 0 0 2.28847e-16 -7.1594e-16 -0.243134 8.39503e-18 -2.62636e-17 -0.000290818 -6.11592e-15 -1.95492e-15 -2.86562e-30 0.001415 
7874 1 -0.0157052 0.0360712 0.0105471 0 0 0 1.68817e-17 1.99684e-17 -0.243134 3.78077e-19 4.47206e-19 -0.000290818 2.04134e-15 -1.72579e-15 -2.28789e-28 0.001415 
9745 1 -0.0323504 0.0411674 0.0092181 0 0 0 0 0 -0.243134 0 0 -0.000290818 0 0 0 0.001415 
4098 1 0.0474587 0.0419422 0.00916272 0 0 0 3.31794e-18 -1.12817e-18 -0.243134 -7.42459e-20 2.52453e-20 -0.000290818 1.22369e-16 3.59887e-16 3.43431e-30 0.001415 
4639 1 0.000319678 0.0462251 0.00954394 0 0 0 1.58221e-15 -8.5195e-16 -0.243134 3.73584e-17 -2.01159e-17 -0.000290818 1.05763e-14 1.96418e-14 -7.69218e-28 0.001415 
7349 1 0.0388392 0.0490157 0.00951194 0 0 0 -3.06822e-18 -5.18863e-17 -0.243134 -3.68041e-20 -6.2239e-19 -0.000290818 6.73789e-15 -3.98434e-16 -5.37206e-29 0.001415 
6048 1 -0.0014895 0.0671831 0.0108264 0 0 0 -1.05905e-16 -6.36405e-18 -0.243134 -1.15318e-18 -6.92972e-20 -0.000290818 1.22029e-15 -2.03069e-14 -1.52434e-28 0.001415 
3318 1 0.0108764 -0.0748018 0.011601 0 0 0 0 0 -0.243134 0 0 -0.000290818 0 0 0 0.001415 
6407 1 -0.0157638 -0.0542001 0.0112233 0 0 0 -2.3781e-17 6.93309e-18 -0.243134 -1.44074e-19 4.20032e-20 -0.000290818 -9.36954e-16 -3.21382e-15 1.7693e-29 0.001415 
4748 1 -0.0463698 -0.05198 0.0119735 0 0 0 -1.31112e-17 1.91701e-18 -0.243134 -4.19776e-19 6.1376e-20 -0.000290818 -6.02436e-15 -4.12031e-14 1.83521e-28 0.001415 
8903 1 0.00719176 -0.0530399 0.0117491 0 0 0 -9.9886e-18 8.43283e-17 -0.243134 -1.04293e-19 8.80492e-19 -0.000290818 -2.34641e-14 -2.7793e-15 2.6249e-28 0.001415 
9217 1 -0.0337766 -0.0507822 0.0127177 0 0 0 -3.61278e-16 9.35158e-16 -0.243134 -1.44985e-18 3.75289e-18 -0.000290818 4.87675e-15 1.88403e-15 1.46e-27 0.001415 
8421 1 -0.0125515 -0.050364 0.0114266 0 0 0 1.30202e-17 -3.47665e-17 -0.243134 2.03794e-19 -5.4417e-19 -0.000290818 4.38739e-15 1.64309e-15 -1.01588e-27 0.001415 
5040 1 0.0412118 -0.051077 0.0110037 0 0 0 0 0 -0.243134 0 0 -0.000290818 0 0 0 0.001415 
164 1 0.0235023 -0.0400763 0.0125324 0 0 0 -0.00275482 -0.0367701 -0.00282705 1.52698e-09 2.03815e-08 -0.000291048 8.21588 -0.615535 -1.8219e-11 0.001415 
7141 1 -0.0440609 -0.0300013 0.0119642 0 0 0 0 0 -0.243134 0 0 -0.000290818 0 0 0 0.001415 
6550 1 -0.00716818 -0.0295154 0.0115825 0 0 0 -1.4037e-18 2.27506e-19 -0.243134 3.43413e-19 -5.56592e-20 -0.000290818 -2.35274e-16 -1.45163e-15 -1.96112e-29 0.001415 
1113 1 0.057839 -0.0250229 0.0127944 0 0 0 1.75861e-15 9.02248e-16 -0.243134 1.06349e-17 5.45619e-18 -0.000290818 1.84884e-14 -3.60367e-14 2.85049e-28 0.001415 
9788 1 -0.0191042 -0.0222982 0.0118161 0 0 0 -5.00487e-17 -6.2234e-17 -0.243134 -6.59866e-19 -8.20523e-19 -0.000290818 2.06613e-14 -1.66159e-14 1.23439e-27 0.001415 
1405 1 0.0162037 -0.0193109 0.0116719 0 0 0 -1.22083e-16 -3.57157e-17 -0.243134 -1.26255e-18 -3.69361e-19 -0.000290818 7.00134e-15 -2.3932e-14 -7.3586e-28 0.001415 
8819 1 0.00974619 -0.0192248 0.0118469 0 0 0 4.12689e-18 1.2693e-16 -0.243134 3.88149e-20 1.19382e-18 -0.000290818 -2.71391e-14 8.82377e-16 -2.48166e-28 0.001415 
3530 1 0.0663652 -0.0174708 0.0127442 0 0 0 8.47069e-16 1.04037e-15 -0.243134 1.14069e-18 1.401e-18 -0.000290818 7.53444e-15 -6.13455e-15 2.16076e-28 0.001415 
8587 1 -0.0404076 -0.0166605 0.0121141 0 0 0 6.51729e-17 -8.60696e-16 -0.243134 2.43542e-19 -3.21631e-18 -0.000290818 -1.37525e-14 -1.04135e-15 -3.48911e-29 0.001415 
4472 1 -0.0211077 -0.0159411 0.0119215 0 0 0 -4.22459e-17 1.44408e-16 -0.243134 -3.74018e-19 1.2785e-18 -0.000290818 -3.57522e-14 -1.04591e-14 -5.60672e-28 0.001415 
5436 1 0.0238697 -0.0121851 0.0120367 0 0 0 -1.74239e-18 3.3108e-18 -0.243134 -4.54481e-19 8.63581e-19 -0.000290818 1.79924e-14 9.46896e-15 2.5132e-28 0.001415 
2098 1 -0.0163785 -0.0113032 0.0114348 0 0 0 -6.0185e-17 -1.09199e-17 -0.243134 -1.64164e-18 -2.97858e-19 -0.000290818 4.96944e-16 -2.7389e-15 -1.99767e-28 0.001415 
4519 1 0.0050482 -0.00799743 0.0125153 0 0 0 -5.92961e-16 7.07876e-16 -0.243134 -2.77045e-18 3.30735e-18 -0.000290818 3.66562e-15 3.07055e-15 1.47378e-27 0.001415 
3527 1 0.053278 -0.000195356 0.011075 0 0 0 2.64662e-17 1.20368e-17 -0.243134 1.59155e-19 7.23838e-20 -0.000290818 -1.87438e-15 4.12133e-15 -2.40893e-29 0.001415 
4852 1 -0.0576017 0.00160357 0.0118359 0 0 0 4.39154e-17 7.20558e-17 -0.243134 4.5418e-19 7.45214e-19 -0.000290818 -1.4422e-14 8.78964e-15 7.55218e-28 0.001415 
9744 1 -0.0476714 0.00124731 0.0127565 0 0 0 2.7131e-17 3.09045e-17 -0.243134 2.97625e-19 3.3902e-19 -0.000290818 -1.42275e-14 1.24903e-14 6.87906e-28 0.001415 
2456 1 0.0231999 0.00341526 0.0120036 0 0 0 -3.60904e-16 2.26963e-16 -0.243134 -1.48541e-18 9.34134e-19 -0.000290818 5.16439e-15 8.21214e-15 -2.94752e-28 0.001415 
1469 1 -0.0554428 0.00427207 0.0126354 0 0 0 7.59305e-16 7.31707e-16 -0.243134 3.20128e-18 3.08493e-18 -0.000290818 1.80948e-14 -1.87773e-14 -1.18757e-29 0.001415 
6444 1 -0.0485008 0.00805 0.0123259 0 0 0 -6.89325e-17 8.39759e-17 -0.243134 -7.52816e-19 9.17106e-19 -0.000290818 -1.98961e-14 -1.63319e-14 -1.57491e-27 0.001415 
5546 1 -0.0286421 0.00814112 0.0127828 0 0 0 -1.36338e-15 -7.45378e-16 -0.243134 -6.52929e-18 -3.56966e-18 -0.000290818 -3.12059e-14 5.70791e-14 -4.07384e-27 0.001415 
7897 1 0.0202104 0.0106666 0.0121787 0 0 0 2.22395e-17 1.06007e-16 -0.243134 2.1907e-19 1.04422e-18 -0.000290818 -3.38143e-14 7.094e-15 6.11034e-29 0.001415 
4430 1 -0.0607358 0.0123237 0.0124635 0 0 0 -8.64009e-16 1.84572e-16 -0.243134 -3.55562e-18 7.59561e-19 -0.000290818 1.70803e-15 7.99554e-15 -9.58289e-29 0.001415 
5821 1 0.071151 0.0126674 0.0121659 0 0 0 -1.70027e-17 1.63424e-17 -0.243134 -3.164e-19 3.04113e-19 -0.000290818 -1.79017e-15 -1.8625e-15 -6.56756e-29 0.001415 
1279 1 -0.00741294 0.0227247 0.0117773 0 0 0 -9.35183e-17 -3.4642e-17 -0.243134 -1.06242e-18 -3.93553e-19 -0.000290818 1.6969e-16 -4.58089e-16 -1.62638e-28 0.001415 
4218 1 0.00694369 0.0277865 0.0127166 0 0 0 1.63609e-16 -1.20918e-15 -0.243134 4.20198e-19 -3.10553e-18 -0.000290818 -4.41798e-14 -5.9778e-15 2.531e-28 0.001415 
9955 1 0.0480973 0.0295036 0.0112358 0 0 0 0 0 -0.243134 0 0 -0.000290818 0 0 0 0.001415 
6215 1 -0.0229502 0.0331509 0.0121809 0 0 0 -1.06428e-17 -4.94842e-17 -0.243134 -1.3115e-19 -6.0979e-19 -0.000290818 3.32705e-14 -7.15563e-15 -3.05698e-28 0.001415 
3967 1 -0.0257836 0.0351781 0.0123923 0 0 0 -3.148e-16 9.84841e-16 -0.243134 -1.40442e-18 4.39369e-18 -0.000290818 1.83092e-14 5.85246e-15 -1.00436e-27 0.001415 
4099 1 0.0465216 0.0422608 0.011814 0 0 0 2.3865e-17 -8.11464e-18 -0.243134 6.1436e-19 -2.08896e-19 -0.000290818 -5.64545e-16 -1.66032e-15 -3.30974e-28 0.001415 
9746 1 -0.0326219 0.0429159 0.0114267 0 0 0 1.48325e-17 -9.55266e-17 -0.243134 1.51264e-19 -9.74193e-19 -0.000290818 2.56636e-14 3.98481e-15 -4.31631e-28 0.001415 
486 1 0.0131757 0.0431015 0.0114112 0 0 0 1.0639e-16 -9.01762e-17 -0.243134 1.00047e-18 -8.47994e-19 -0.000290818 2.26376e-14 2.67079e-14 -3.70836e-28 0.001415 
4638 1 0.00148191 0.0455993 0.0120472 0 0 0 1.55486e-17 -8.37225e-18 -0.243134 1.01459e-18 -5.46313e-19 -0.000290818 -5.36342e-15 -9.96074e-15 8.81544e-28 0.001415 
7348 1 0.0388741 0.0496065 0.0122794 0 0 0 -3.82459e-17 -6.46773e-16 -0.243134 -1.67251e-19 -2.82837e-18 -0.000290818 3.60506e-15 -2.1318e-16 2.96481e-29 0.001415 
8316 1 0.0241447 0.055508 0.0119788 0 0 0 0 0 -0.243134 0 0 -0.000290818 0 0 0 0.001415 
4831 1 0.0293284 0.0560787 0.0124481 0 0 0 9.99068e-16 -5.55374e-16 -0.243134 4.7786e-18 -2.65638e-18 -0.000290818 -2.27931e-14 -4.10027e-14 -2.78329e-28 0.001415 
6909 1 0.00964204 0.0590336 0.0124822 0 0 0 2.16226e-16 -1.30282e-16 -0.243134 1.74114e-18 -1.04908e-18 -0.000290818 3.72013e-14 6.17422e-14 -9.64944e-28 0.001415 
8757 1 0.00829498 0.0765507 0.0128372 0 0 0 0 0 -0.243134 0 0 -0.000290818 0 0 0 0.001415 
3317 1 0.00879117 -0.0741345 0.0133942 0 0 0 1.27417e-15 -4.07751e-16 -0.243134 2.18598e-18 -6.99543e-19 -0.000290818 -2.26261e-14 -7.07035e-14 -1.85865e-27 0.001415 
4537 1 0.0348065 -0.0668743 0.0133721 0 0 0 4.56661e-16 -8.89318e-16 -0.243134 -4.35217e-22 8.47557e-22 -0.000290818 9.4418e-15 4.84833e-15 -4.63244e-29 0.001415 
5120 1 -0.00732864 -0.0640527 0.0131283 0 0 0 -5.25701e-16 -1.85045e-16 -0.243134 8.15977e-19 2.87221e-19 -0.000290818 2.32781e-15 -6.61316e-15 4.29429e-28 0.001415 
8902 1 0.00739974 -0.0547957 0.0139588 0 0 0 -1.70069e-16 1.4358e-15 -0.243134 1.04465e-19 -8.81941e-19 -0.000290818 1.35373e-14 1.60347e-15 1.32956e-28 0.001415 
4749 1 -0.0443437 -0.0522762 0.0139269 0 0 0 -1.1003e-15 1.60876e-16 -0.243134 8.65187e-19 -1.265e-19 -0.000290818 2.76828e-15 1.89334e-14 -3.91057e-29 0.001415 
6408 1 -0.0176936 -0.0536375 0.0132154 0 0 0 2.79316e-15 -8.14316e-16 -0.243134 2.25248e-17 -6.56684e-18 -0.000290818 -3.08038e-14 -1.05659e-13 -3.46962e-27 0.001415 
5039 1 0.0393096 -0.0515993 0.0130329 0 0 0 1.74136e-15 4.78143e-16 -0.243134 1.02532e-17 2.81533e-18 -0.000290818 1.61678e-14 -5.8882e-14 2.73493e-27 0.001415 
8420 1 -0.0130316 -0.0490822 0.0139035 0 0 0 4.68056e-16 -1.2498e-15 -0.243134 -2.04252e-19 5.45394e-19 -0.000290818 -1.10912e-14 -4.15368e-15 1.14116e-27 0.001415 
8293 1 0.0410995 -0.0444363 0.0129725 0 0 0 6.88041e-16 -1.63078e-15 -0.243134 2.76905e-18 -6.56315e-18 -0.000290818 -1.01539e-13 -4.28401e-14 -2.49794e-28 0.001415 
8782 1 0.00995582 -0.0396456 0.0129108 0 0 0 1.06009e-15 4.83606e-16 -0.243134 -6.77016e-19 -3.08851e-19 -0.000290818 1.1972e-14 -2.62432e-14 -1.02625e-27 0.001415 
1765 1 -0.00582286 -0.0341936 0.0136656 0 0 0 1.27231e-15 -3.98154e-16 -0.243134 -1.21256e-21 3.79457e-22 -0.000290818 -1.59986e-14 -5.11237e-14 4.64334e-28 0.001415 
7142 1 -0.0430179 -0.0310366 0.0143827 0 0 0 -9.67336e-16 9.60176e-16 -0.243134 9.21912e-22 -9.15088e-22 -0.000290818 2.60941e-14 2.62887e-14 -1.61899e-28 0.001415 
6549 1 -0.00774795 -0.0294214 0.0143508 0 0 0 6.52438e-16 -1.05745e-16 -0.243134 -3.91422e-19 6.34402e-20 -0.000290818 8.60506e-16 5.30926e-15 7.45934e-29 0.001415 
2898 1 -0.0015393 -0.0260351 0.0139378 0 0 0 8.47848e-16 -1.67373e-16 -0.243134 -8.08034e-22 1.59514e-22 -0.000290818 -5.03183e-16 -2.54893e-15 -8.95324e-29 0.001415 
2604 1 -0.0264828 -0.0239558 0.0136623 0 0 0 1.89465e-15 -8.24922e-17 -0.243134 1.25142e-17 -5.44863e-19 -0.000290818 -3.82919e-15 -8.79476e-14 -1.74454e-28 0.001415 
7959 1 -0.0480224 -0.0227988 0.0143443 0 0 0 -1.34106e-15 8.36457e-16 -0.243134 1.27809e-21 -7.97179e-22 -0.000290818 2.46521e-14 3.9524e-14 2.38023e-27 0.001415 
8818 1 0.00968245 -0.0211851 0.013887 0 0 0 4.36279e-17 1.34186e-15 -0.243134 -3.88604e-20 -1.19522e-18 -0.000290818 7.77965e-15 -2.5294e-16 -1.324e-28 0.001415 
9789 1 -0.0179785 -0.0208985 0.014003 0 0 0 -9.82196e-16 -1.22133e-15 -0.243134 7.46745e-19 9.28553e-19 -0.000290818 -2.16964e-14 1.74483e-14 2.17659e-28 0.001415 
4471 1 -0.0206599 -0.0174716 0.0142594 0 0 0 -3.25208e-16 1.11165e-15 -0.243134 3.74368e-19 -1.2797e-18 -0.000290818 -9.16859e-16 -2.68222e-16 -2.53217e-28 0.001415 
1404 1 0.0175339 -0.0189217 0.0141393 0 0 0 -1.1593e-15 -3.39156e-16 -0.243134 1.26377e-18 3.69718e-19 -0.000290818 -9.84714e-16 3.36595e-15 4.91086e-28 0.001415 
8586 1 -0.0404855 -0.0156313 0.0147492 0 0 0 -6.24181e-17 8.24316e-16 -0.243134 -3.60551e-19 4.76156e-18 -0.000290818 -4.26003e-14 -3.22575e-15 -2.05338e-28 0.001415 
4388 1 -0.00265555 -0.0161876 0.0133756 0 0 0 5.50859e-16 -2.68538e-16 -0.243134 -5.03528e-19 2.45464e-19 -0.000290818 2.05583e-15 4.21718e-15 -2.79096e-30 0.001415 
2097 1 -0.0180782 -0.0116116 0.0136764 0 0 0 1.47476e-15 2.67579e-16 -0.243134 -1.4055e-21 -2.55014e-22 -0.000290818 8.10384e-15 -4.46642e-14 -1.64089e-27 0.001415 
5435 1 0.0233242 -0.0111485 0.0146129 0 0 0 5.30219e-16 -1.0075e-15 -0.243134 -4.87856e-19 9.26999e-19 -0.000290818 -2.06074e-15 -1.08452e-15 -3.29778e-28 0.001415 
9887 1 -0.0551901 -0.00373509 0.0129723 0 0 0 3.7864e-16 -4.72915e-16 -0.243134 -5.98696e-19 7.47762e-19 -0.000290818 6.27725e-15 5.02588e-15 -3.78385e-29 0.001415 
4853 1 -0.0586257 -7.65915e-05 0.01387 0 0 0 7.44281e-16 1.22121e-15 -0.243134 -4.54932e-19 -7.46447e-19 -0.000290818 8.74452e-15 -5.32946e-15 -1.3224e-27 0.001415 
9743 1 -0.0492029 -0.00049722 0.0143752 0 0 0 6.51279e-16 7.41861e-16 -0.243134 -2.98272e-19 -3.39756e-19 -0.000290818 2.10901e-14 -1.8515e-14 1.69376e-27 0.001415 
3403 1 0.0399954 0.00144601 0.0128915 0 0 0 -1.53526e-15 7.2652e-17 -0.243134 -8.97248e-18 4.24597e-19 -0.000290818 2.75954e-15 5.83139e-14 -4.62526e-28 0.001415 
3526 1 0.0549212 0.000551996 0.0132544 0 0 0 -1.47333e-15 -6.70068e-16 -0.243134 1.40414e-21 6.38603e-22 -0.000290818 -2.19833e-14 4.83362e-14 -1.36598e-27 0.001415 
3843 1 -0.0432547 0.00201405 0.013477 0 0 0 1.21463e-15 8.27606e-16 -0.243134 -1.1576e-21 -7.88743e-22 -0.000290818 1.69873e-14 -2.49314e-14 2.0132e-27 0.001415 
2455 1 0.0236249 0.00314802 0.0147887 0 0 0 2.13426e-16 -1.34218e-16 -0.243134 1.48555e-18 -9.34223e-19 -0.000290818 5.80802e-15 9.2356e-15 -2.4954e-28 0.001415 
6238 1 0.0476834 0.00358837 0.0130125 0 0 0 1.9559e-15 -1.25846e-15 -0.243134 1.01828e-17 -6.55181e-18 -0.000290818 -5.05317e-14 -7.85365e-14 9.4171e-28 0.001415 
7479 1 0.00708078 0.00479504 0.0129193 0 0 0 -7.3268e-16 7.42983e-16 -0.243134 4.04935e-19 -4.1063e-19 -0.000290818 3.10434e-15 3.06129e-15 4.59782e-28 0.001415 
6443 1 -0.0474965 0.00682656 0.0146718 0 0 0 -8.24385e-16 1.00429e-15 -0.243134 8.30998e-19 -1.01235e-18 -0.000290818 1.41935e-14 1.16508e-14 -2.58503e-28 0.001415 
7898 1 0.0197791 0.00861083 0.0140752 0 0 0 2.82679e-16 1.34742e-15 -0.243134 -2.1936e-19 -1.0456e-18 -0.000290818 1.94287e-14 -4.076e-15 -4.0076e-28 0.001415 
4366 1 0.0434972 0.010956 0.0130903 0 0 0 -8.07844e-16 7.28734e-16 -0.243134 6.69886e-19 -6.04286e-19 -0.000290818 3.66089e-15 4.05831e-15 -3.92978e-28 0.001415 
1176 1 0.023371 0.01534 0.0140767 0 0 0 1.7991e-17 1.52446e-15 -0.243134 -1.71462e-23 -1.45287e-21 -0.000290818 2.4054e-14 -2.83876e-16 -5.20581e-30 0.001415 
4344 1 0.0486622 0.0138541 0.0133833 0 0 0 -1.29912e-15 -4.56617e-16 -0.243134 7.03157e-19 2.47146e-19 -0.000290818 -4.00249e-15 1.13875e-14 9.23739e-28 0.001415 
5822 1 0.0700663 0.01371 0.0145628 0 0 0 1.10308e-15 -1.06024e-15 -0.243134 -1.05128e-21 1.01045e-21 -0.000290818 -2.64093e-14 -2.74763e-14 9.19621e-28 0.001415 
9808 1 -0.0411335 0.0170646 0.014608 0 0 0 1.07639e-15 -8.87745e-16 -0.243134 -1.02584e-21 8.46058e-22 -0.000290818 -3.42603e-14 -4.15404e-14 2.9905e-27 0.001415 
5629 1 -0.00809486 0.0186934 0.0132566 0 0 0 1.76488e-15 3.08741e-17 -0.243134 1.11947e-17 1.95835e-19 -0.000290818 1.63076e-15 -9.32203e-14 3.94521e-28 0.001415 
9993 1 -0.0262716 0.020692 0.013352 0 0 0 -8.04288e-16 -7.68334e-16 -0.243134 9.18368e-19 8.77314e-19 -0.000290818 -1.09573e-14 1.147e-14 5.29874e-28 0.001415 
1278 1 -0.00656497 0.0230388 0.0144589 0 0 0 -8.33559e-16 -3.08775e-16 -0.243134 1.06331e-18 3.9388e-19 -0.000290818 5.84909e-15 -1.579e-14 4.26626e-29 0.001415 
3553 1 0.038325 0.0241144 0.0133542 0 0 0 -1.94479e-16 1.13772e-15 -0.243134 1.34678e-19 -7.8788e-19 -0.000290818 1.50559e-14 2.57362e-15 6.15095e-28 0.001415 
2811 1 0.0616855 0.0236687 0.0129733 0 0 0 2.43522e-16 1.23561e-15 -0.243134 -2.16745e-19 -1.09975e-18 -0.000290818 1.11516e-15 -2.19784e-16 -2.59743e-28 0.001415 
9956 1 0.047731 0.0274693 0.0131688 0 0 0 3.48416e-16 1.93503e-15 -0.243134 2.20442e-18 1.22429e-17 -0.000290818 5.12074e-14 -9.22026e-15 1.84087e-28 0.001415 
6007 1 0.0347873 0.0296881 0.0129387 0 0 0 3.83128e-16 4.29286e-16 -0.243134 -3.65137e-22 -4.09127e-22 -0.000290818 -2.63595e-15 2.35253e-15 1.33566e-29 0.001415 
8774 1 0.0137081 0.0323084 0.0136123 0 0 0 -2.40154e-16 4.0417e-16 -0.243134 2.05908e-19 -3.46535e-19 -0.000290818 -5.11665e-15 -3.04026e-15 -5.72573e-29 0.001415 
6214 1 -0.0224995 0.0352466 0.0140286 0 0 0 -2.81389e-16 -1.30834e-15 -0.243134 1.60254e-19 7.45112e-19 -0.000290818 -2.47182e-14 5.31625e-15 1.07865e-27 0.001415 
7873 1 -0.0162209 0.0354611 0.013262 0 0 0 5.28218e-16 6.24799e-16 -0.243134 -4.31116e-19 -5.09943e-19 -0.000290818 -6.77322e-15 5.72622e-15 5.52145e-28 0.001415 
6847 1 -0.0500743 0.0395872 0.0134187 0 0 0 -1.85125e-15 7.98484e-16 -0.243134 -1.16659e-17 5.03174e-18 -0.000290818 4.69179e-14 1.08777e-13 -3.67562e-27 0.001415 