ITEM: TIMESTEP
125000
ITEM: NUMBER OF ATOMS
10248
ITEM: BOX BOUNDS ff ff ff
-0.2 0.2
-0.2 0.2
-0.01 0.5
ITEM: ATOMS id type x y z ix iy iz vx vy vz fx fy fz omegax omegay omegaz radius 
168 1 0.0236553 -0.0380352 0.00141332 0 0 0 -0.000135663 -0.00181077 0.0208153 0.000268884 0.00358894 0.0627825 5.41237 -0.405496 -1.50871e-14 0.001415 
5124 1 -0.00943529 -0.0647942 0.00247506 0 0 0 -1.07556e-17 -3.78595e-18 -0.224509 9.86309e-24 3.47178e-24 -0.000290844 2.43544e-16 -6.91893e-16 1.49155e-32 0.001415 
9891 1 -0.0536741 -0.00562861 0.00235953 0 0 0 7.12627e-18 -8.9006e-18 -0.224509 -6.53491e-24 8.162e-24 -0.000290844 6.62948e-16 5.3079e-16 -2.89629e-31 0.001415 
8778 1 0.0127785 0.033873 0.00288384 0 0 0 -4.29736e-18 7.23229e-18 -0.224509 3.94075e-24 -6.63213e-24 -0.000290844 -4.43931e-16 -2.6378e-16 3.68628e-31 0.001415 
5123 1 -0.00890863 -0.0646088 0.00524943 0 0 0 9.81926e-18 3.45635e-18 -0.224509 -9.00443e-24 -3.16953e-24 -0.000290844 2.42095e-16 -6.87776e-16 1.77197e-32 0.001415 
167 1 0.0236183 -0.0385289 0.00419735 0 0 0 -0.000249785 -0.00333402 -0.138497 -0.00146432 -0.0195451 0.327579 16.6146 -1.24477 -2.76829e-14 0.001415 
5439 1 0.0255064 -0.015295 0.00475241 0 0 0 6.69742e-19 -1.27261e-18 -0.224509 -6.14165e-25 1.16701e-24 -0.000290844 -5.23901e-18 -2.75716e-18 2.22095e-33 0.001415 
9890 1 -0.0540531 -0.00515523 0.00512379 0 0 0 -6.21426e-18 7.76151e-18 -0.224509 5.69858e-24 -7.11744e-24 -0.000290844 6.56941e-16 5.2598e-16 -2.89949e-31 0.001415 
4096 1 0.0493328 0.0413049 0.00430442 0 0 0 1.13675e-17 -3.86521e-18 -0.224509 1.2623e-19 -4.29211e-20 -0.000290844 -3.54634e-16 -1.04297e-15 2.23492e-30 0.001415 
4641 1 -0.00200478 0.0474767 0.00498161 0 0 0 -2.10641e-18 1.13421e-18 -0.224509 1.93161e-24 -1.04009e-24 -0.000290844 5.34855e-18 9.93313e-18 -2.46531e-33 0.001415 
166 1 0.0235813 -0.0390227 0.00698328 0 0 0 -0.000177694 -0.00237177 -0.217975 -0.0012904 -0.0172237 0.051284 -1.99274 0.149296 -1.2054e-14 0.001415 
8779 1 0.0136066 -0.0379801 0.0058732 0 0 0 1.1488e-19 5.24076e-20 -0.224509 -1.05347e-25 -4.80586e-26 -0.000290844 -4.07811e-19 8.93942e-19 -5.00756e-34 0.001415 
6552 1 -0.00600865 -0.0297033 0.00648996 0 0 0 7.94149e-19 -1.28713e-19 -0.224509 -7.28248e-25 1.18032e-25 -0.000290844 -4.68472e-19 -2.89044e-18 -2.04093e-34 0.001415 
1407 1 0.0135434 -0.0200891 0.00718129 0 0 0 -6.8009e-19 -1.98962e-19 -0.224509 6.23654e-25 1.82451e-25 -0.000290844 -4.80053e-19 1.64092e-18 -6.54861e-34 0.001415 
4516 1 0.00201022 -0.00437069 0.00590988 0 0 0 -1.0723e-18 1.28011e-18 -0.224509 9.83316e-25 -1.17388e-24 -0.000290844 4.69448e-18 3.93239e-18 -1.24813e-32 0.001415 
5818 1 0.0744051 0.00953964 0.00541933 0 0 0 2.3686e-19 -2.27662e-19 -0.224509 -2.17205e-25 2.0877e-25 -0.000290844 -2.53181e-19 -2.6341e-19 -1.71782e-34 0.001415 
6447 1 -0.0515136 0.0117203 0.00573227 0 0 0 -1.10173e-18 1.34217e-18 -0.224509 1.01031e-24 -1.23079e-24 -0.000290844 4.42236e-18 3.63014e-18 -1.3819e-32 0.001415 
4347 1 0.0446345 0.0124385 0.00648904 0 0 0 -7.28278e-19 -2.55975e-19 -0.224509 6.67843e-25 2.34734e-25 -0.000290844 -2.68501e-19 7.63914e-19 -3.25083e-35 0.001415 
9996 1 -0.0293411 0.0177597 0.0064437 0 0 0 -1.75255e-18 -1.67421e-18 -0.224509 1.60712e-24 1.53528e-24 -0.000290844 -7.58312e-18 7.93798e-18 1.07764e-32 0.001415 
1281 1 -0.00910888 0.0220965 0.00685828 0 0 0 -7.20035e-19 -2.66722e-19 -0.224509 6.60284e-25 2.44589e-25 -0.000290844 -8.97973e-19 2.42414e-18 -9.39109e-34 0.001415 
4221 1 0.00751144 0.0235905 0.00580213 0 0 0 3.08435e-20 -2.27954e-19 -0.224509 -2.8284e-26 2.09037e-25 -0.000290844 4.14627e-19 5.61016e-20 1.08548e-34 0.001415 
3550 1 0.0375782 0.0284832 0.00655719 0 0 0 -1.07712e-18 6.30124e-18 -0.224509 9.87736e-25 -5.77835e-24 -0.000290844 3.7126e-17 6.34623e-18 -1.16598e-32 0.001415 
2814 1 0.0624335 0.0274639 0.00586005 0 0 0 1.42414e-19 7.22598e-19 -0.224509 -1.30596e-25 -6.62634e-25 -0.000290844 1.17358e-18 -2.31296e-19 1.95766e-33 0.001415 
8777 1 0.0130109 0.0334818 0.00567703 0 0 0 4.09758e-18 -6.89607e-18 -0.224509 -3.75755e-24 6.32381e-24 -0.000290844 -4.43158e-16 -2.6332e-16 3.68507e-31 0.001415 
484 1 0.0153265 0.0412785 0.0069477 0 0 0 2.85377e-18 -2.41885e-18 -0.224509 -2.61696e-24 2.21813e-24 -0.000290844 -1.2641e-17 -1.4914e-17 1.1146e-32 0.001415 
4097 1 0.0483957 0.0416236 0.0069557 0 0 0 -9.90798e-18 3.36893e-18 -0.224509 -1.26232e-19 4.29215e-20 -0.000290844 -3.56154e-16 -1.04744e-15 2.23346e-30 0.001415 
7350 1 0.0388042 0.0484249 0.00718877 0 0 0 -4.44026e-21 -7.50888e-20 -0.224509 4.07179e-27 6.88577e-26 -0.000290844 2.59551e-19 -1.53481e-20 3.67253e-36 0.001415 
5122 1 -0.00838197 -0.0644234 0.00802381 0 0 0 3.35926e-19 1.18245e-19 -0.224509 -1.09361e-20 -3.84947e-21 -0.000290844 1.03e-16 -2.92617e-16 -3.06971e-30 0.001415 
9219 1 -0.0350531 -0.0474779 0.00874743 0 0 0 0 0 -0.224509 0 0 -0.000290844 0 0 0 0.001415 
8295 1 0.0424827 -0.0477148 0.00901514 0 0 0 0 0 -0.224509 0 0 -0.000290844 0 0 0 0.001415 
8780 1 0.0123897 -0.0385353 0.00836714 0 0 0 2.50661e-17 1.1435e-17 -0.224509 2.83789e-19 1.29463e-19 -0.000290844 -2.14347e-15 4.69858e-15 2.26717e-31 0.001415 
8589 1 -0.0402517 -0.0187189 0.00728826 0 0 0 5.78185e-20 -7.63571e-19 -0.224509 -5.30205e-26 7.00207e-25 -0.000290844 3.6327e-18 2.75072e-19 -1.53626e-32 0.001415 
5438 1 0.0249608 -0.0142584 0.00732858 0 0 0 1.10894e-16 -2.10714e-16 -0.224509 4.05091e-18 -7.69733e-18 -0.000290844 -2.51731e-15 -1.32479e-15 -1.24648e-29 0.001415 
2100 1 -0.012979 -0.0106864 0.0073959 0 0 0 2.50813e-16 4.55073e-17 -0.224509 9.16717e-18 1.66328e-18 -0.000290844 -6.01293e-16 3.31402e-15 7.07991e-30 0.001415 
9889 1 -0.0544321 -0.00468185 0.00788806 0 0 0 -9.1201e-19 1.13909e-18 -0.224509 8.36329e-25 -1.04456e-24 -0.000290844 -6.00707e-18 -4.80957e-18 -3.20198e-34 0.001415 
4517 1 0.00302288 -0.0055796 0.00825977 0 0 0 1.0723e-18 -1.28011e-18 -0.224509 -9.83316e-25 1.17388e-24 -0.000290844 4.69448e-18 3.93239e-18 -1.24813e-32 0.001415 
7477 1 0.00556963 0.00632744 0.00812867 0 0 0 0 0 -0.224509 0 0 -0.000290844 0 0 0 0.001415 
6446 1 -0.0505093 0.0104969 0.00807822 0 0 0 -2.47069e-18 3.00987e-18 -0.224509 -4.15236e-20 5.05855e-20 -0.000290844 6.68472e-17 5.48722e-17 1.04094e-30 0.001415 
5819 1 0.0733204 0.0105822 0.00781627 0 0 0 -2.3686e-19 2.27662e-19 -0.224509 2.17205e-25 -2.0877e-25 -0.000290844 -2.53181e-19 -2.6341e-19 -1.71782e-34 0.001415 
4368 1 0.0417993 0.0124877 0.00835708 0 0 0 0 0 -0.224509 0 0 -0.000290844 0 0 0 0.001415 
4346 1 0.0459771 0.0129104 0.00893521 0 0 0 -9.12307e-18 -3.20658e-18 -0.224509 -1.1043e-19 -3.88139e-20 -0.000290844 -2.83884e-16 8.07682e-16 -1.82221e-30 0.001415 
9995 1 -0.0283179 0.0187371 0.00889455 0 0 0 1.75255e-18 1.67421e-18 -0.224509 -1.60712e-24 -1.53528e-24 -0.000290844 -7.58312e-18 7.93798e-18 1.07764e-32 0.001415 
4220 1 0.00732219 0.0249892 0.00825504 0 0 0 1.43239e-18 -1.05863e-17 -0.224509 1.78217e-20 -1.31714e-19 -0.000290844 -4.8855e-16 -6.61039e-17 1.09533e-30 0.001415 
2813 1 0.0621842 0.0261988 0.00837924 0 0 0 1.27268e-18 6.45748e-18 -0.224509 1.77443e-20 9.00333e-20 -0.000290844 1.04053e-16 -2.05075e-17 3.65573e-32 0.001415 
3551 1 0.0378271 0.027027 0.00897095 0 0 0 1.07712e-18 -6.30124e-18 -0.224509 -9.87736e-25 5.77835e-24 -0.000290844 3.7126e-17 6.34623e-18 -1.16598e-32 0.001415 
8776 1 0.0132433 0.0330907 0.00847021 0 0 0 -6.61451e-19 1.1132e-18 -0.224509 -1.0878e-20 1.83072e-20 -0.000290844 3.48778e-17 2.07241e-17 6.63576e-31 0.001415 
3969 1 -0.0266131 0.0377733 0.00787552 0 0 0 -1.40776e-17 4.40414e-17 -0.224509 -1.56809e-19 4.90572e-19 -0.000290844 -4.84434e-15 -1.54847e-15 3.14033e-30 0.001415 
7875 1 -0.0151895 0.0366812 0.00827645 0 0 0 3.76789e-18 4.45683e-18 -0.224509 4.22413e-20 4.99648e-20 -0.000290844 4.36969e-16 -3.69423e-16 1.2209e-31 0.001415 
4640 1 -0.000842548 0.0468509 0.0074849 0 0 0 -2.92632e-16 1.5757e-16 -0.224509 -1.03591e-17 5.57795e-18 -0.000290844 -3.42023e-16 -6.35193e-16 -1.05535e-29 0.001415 
5121 1 -0.0078553 -0.064238 0.0107982 0 0 0 -1.32865e-17 -4.6768e-18 -0.224509 -4.35316e-19 -1.5323e-19 -0.000290844 -1.74685e-16 4.96269e-16 8.25992e-29 0.001415 
6406 1 -0.013834 -0.0547628 0.00967554 0 0 0 1.41142e-17 -4.11485e-18 -0.224509 1.57992e-19 -4.60609e-20 -0.000290844 -2.95998e-16 -1.0153e-15 -6.37725e-31 0.001415 
4747 1 -0.048396 -0.0516837 0.0104643 0 0 0 -4.20975e-17 6.15514e-18 -0.224509 -4.752e-19 6.94798e-20 -0.000290844 -1.53395e-16 -1.04913e-15 -1.82543e-30 0.001415 
8904 1 0.00698378 -0.051284 0.0099837 0 0 0 0 0 -0.224509 0 0 -0.000290844 0 0 0 0.001415 
9218 1 -0.0344149 -0.0491301 0.0109547 0 0 0 -8.84584e-18 2.28972e-17 -0.224509 -1.6599e-19 4.2966e-19 -0.000290844 -3.96755e-15 -1.53278e-15 -6.68312e-29 0.001415 
8781 1 0.0111727 -0.0390904 0.0108611 0 0 0 -2.44066e-17 -1.11341e-17 -0.224509 2.60433e-19 1.18808e-19 -0.000290844 -2.23845e-15 4.90679e-15 -1.76385e-30 0.001415 
165 1 0.0235443 -0.0395164 0.00976961 0 0 0 7.83967e-07 1.0464e-05 -0.224374 6.94744e-06 9.27312e-05 0.00134567 0.0589795 -0.00441876 5.68687e-16 0.001415 
6551 1 -0.00658842 -0.0296093 0.00925834 0 0 0 3.48391e-18 -5.6466e-19 -0.224509 4.77855e-20 -7.7449e-21 -0.000290844 -5.7061e-17 -3.52062e-16 9.27823e-32 0.001415 
9787 1 -0.0202299 -0.023698 0.0100735 0 0 0 -6.0342e-18 -7.50334e-18 -0.224509 -7.12188e-20 -8.85583e-20 -0.000290844 -4.33016e-16 3.48233e-16 -6.23382e-30 0.001415 
1406 1 0.0148736 -0.0197 0.00964871 0 0 0 6.8009e-19 1.98962e-19 -0.224509 -6.23654e-25 -1.82451e-25 -0.000290844 -4.80053e-19 1.64092e-18 -6.54861e-34 0.001415 
8588 1 -0.0403296 -0.0176897 0.00992332 0 0 0 4.90313e-18 -6.47525e-17 -0.224509 9.98655e-20 -1.31886e-18 -0.000290844 7.88427e-15 5.97006e-16 7.06386e-29 0.001415 
4389 1 -0.00210167 -0.0164576 0.0110578 0 0 0 7.32982e-18 -3.5732e-18 -0.224509 3.25585e-19 -1.58719e-19 -0.000290844 -3.24614e-17 -6.65891e-17 -1.87649e-29 0.001415 
8820 1 0.00980992 -0.0172644 0.0102511 0 0 0 0 0 -0.224509 0 0 -0.000290844 0 0 0 0.001415 
3529 1 0.0670132 -0.0166749 0.0105511 0 0 0 0 0 -0.224509 0 0 -0.000290844 0 0 0 0.001415 
4473 1 -0.0215554 -0.0144106 0.0100278 0 0 0 0 0 -0.224509 0 0 -0.000290844 0 0 0 0.001415 
5437 1 0.0244153 -0.0132218 0.00990476 0 0 0 -9.83283e-17 1.86839e-16 -0.224509 -3.7316e-18 7.09061e-18 -0.000290844 5.23614e-16 2.75564e-16 -4.91724e-30 0.001415 
2099 1 -0.0146787 -0.0109948 0.00963748 0 0 0 -2.42109e-16 -4.39281e-17 -0.224509 -8.74934e-18 -1.58747e-18 -0.000290844 -5.00871e-16 2.76055e-15 5.6205e-30 0.001415 
4518 1 0.00403554 -0.00678852 0.0106097 0 0 0 -2.44484e-17 2.91864e-17 -0.224509 -4.19361e-19 5.00633e-19 -0.000290844 -8.01354e-15 -6.71264e-15 -2.31506e-28 0.001415 
9888 1 -0.0548111 -0.00420847 0.0106523 0 0 0 7.6402e-18 -9.54249e-18 -0.224509 2.64377e-19 -3.30202e-19 -0.000290844 1.05047e-16 8.41059e-17 9.65791e-30 0.001415 
3528 1 0.0516347 -0.000942708 0.00933975 0 0 0 -1.57523e-17 -7.16415e-18 -0.224509 -1.75667e-19 -7.98932e-20 -0.000290844 -5.93027e-16 1.30393e-15 -5.7547e-31 0.001415 
2457 1 0.0227749 0.00368251 0.00966273 0 0 0 0 0 -0.224509 0 0 -0.000290844 0 0 0 0.001415 
1470 1 -0.0541433 0.00552442 0.0108999 0 0 0 2.89902e-17 2.79366e-17 -0.224509 4.99898e-19 4.81728e-19 -0.000290844 -7.76962e-15 8.06267e-15 -3.21027e-29 0.001415 
7478 1 0.0063252 0.00556124 0.0107461 0 0 0 -4.4653e-19 4.5281e-19 -0.224509 -3.13686e-19 3.18097e-19 -0.000290844 -7.82743e-17 -7.71889e-17 -3.75955e-30 0.001415 
5545 1 -0.0302182 0.00727945 0.0110402 0 0 0 0 0 -0.224509 0 0 -0.000290844 0 0 0 0.001415 
6445 1 -0.0495051 0.00927345 0.0104242 0 0 0 -2.54602e-19 3.10165e-19 -0.224509 -8.5309e-21 1.03926e-20 -0.000290844 9.05721e-17 7.4347e-17 2.38009e-30 0.001415 
4431 1 -0.0620527 0.012605 0.0104187 0 0 0 -3.92839e-17 8.39191e-18 -0.224509 -6.61643e-19 1.41342e-19 -0.000290844 -1.69731e-15 -7.94538e-15 -3.12709e-29 0.001415 
4367 1 0.0426483 0.0117219 0.0109458 0 0 0 -1.66449e-17 1.50149e-17 -0.224509 -5.78164e-19 5.21545e-19 -0.000290844 -1.76751e-15 -1.95939e-15 4.3797e-29 0.001415 
5820 1 0.0722357 0.0116248 0.0102132 0 0 0 7.92867e-18 -7.62077e-18 -0.224509 8.85996e-20 -8.5159e-20 -0.000290844 -6.59882e-16 -6.86543e-16 -4.87362e-30 0.001415 
1280 1 -0.00826091 0.0224106 0.00953992 0 0 0 7.20035e-19 2.66722e-19 -0.224509 -6.60284e-25 -2.44589e-25 -0.000290844 -8.97973e-19 2.42414e-18 -9.39109e-34 0.001415 
2812 1 0.0619348 0.0249338 0.0108984 0 0 0 4.22481e-18 2.14363e-17 -0.224509 1.6708e-19 8.47748e-19 -0.000290844 -2.83399e-15 5.58541e-16 -3.71361e-29 0.001415 
4219 1 0.00713294 0.0263879 0.010708 0 0 0 2.98724e-18 -2.20776e-17 -0.224509 1.10278e-19 -8.15025e-19 -0.000290844 4.2247e-15 5.71628e-16 2.52939e-29 0.001415 
6216 1 -0.023401 0.0310553 0.0107774 0 0 0 -2.42376e-18 -1.12694e-17 -0.224509 -2.82423e-20 -1.31314e-19 -0.000290844 -5.81805e-16 1.25131e-16 1.74169e-30 0.001415 
3968 1 -0.0261983 0.0364757 0.0103561 0 0 0 1.40776e-17 -4.40414e-17 -0.224509 1.56809e-19 -4.90572e-19 -0.000290844 -4.84434e-15 -1.54847e-15 3.14033e-30 0.001415 
7874 1 -0.0157052 0.0360712 0.0109914 0 0 0 -3.357e-18 -3.97081e-18 -0.224509 2.46288e-19 2.9132e-19 -0.000290844 3.71244e-16 -3.13858e-16 -3.95647e-30 0.001415 
9745 1 -0.0323504 0.0411674 0.00966236 0 0 0 0 0 -0.224509 0 0 -0.000290844 0 0 0 0.001415 
485 1 0.0142511 0.04219 0.00940159 0 0 0 -2.85377e-18 2.41885e-18 -0.224509 2.61696e-24 -2.21813e-24 -0.000290844 -1.2641e-17 -1.4914e-17 1.1146e-32 0.001415 
4098 1 0.0474587 0.0419422 0.00960698 0 0 0 1.814e-18 -6.168e-19 -0.224509 3.71325e-20 -1.26259e-20 -0.000290844 -5.31051e-17 -1.56181e-16 -3.1693e-31 0.001415 
4639 1 0.000319678 0.0462251 0.0099882 0 0 0 2.76942e-16 -1.49121e-16 -0.224509 9.85386e-18 -5.30587e-18 -0.000290844 1.9081e-16 3.54364e-16 2.35411e-30 0.001415 
7349 1 0.0388392 0.0490157 0.0099562 0 0 0 -1.01551e-18 -1.71731e-17 -0.224509 -2.68946e-20 -4.54813e-19 -0.000290844 1.9662e-16 -1.16268e-17 -5.58254e-30 0.001415 
3318 1 0.0108764 -0.0748018 0.0120453 0 0 0 0 0 -0.224509 0 0 -0.000290844 0 0 0 0.001415 
6407 1 -0.0157638 -0.0542001 0.0116676 0 0 0 -1.41142e-17 4.11485e-18 -0.224509 -1.57992e-19 4.60609e-20 -0.000290844 -2.95998e-16 -1.0153e-15 -6.37725e-31 0.001415 
4748 1 -0.0463698 -0.05198 0.0124177 0 0 0 1.15354e-17 -1.68661e-18 -0.224509 -2.11314e-19 3.08966e-20 -0.000290844 -2.21368e-15 -1.51403e-14 5.57937e-29 0.001415 
8903 1 0.00719176 -0.0530399 0.0121934 0 0 0 -3.41141e-18 2.88007e-17 -0.224509 -8.28797e-20 6.99709e-19 -0.000290844 -7.95035e-15 -9.4171e-16 7.01302e-29 0.001415 
8421 1 -0.0125515 -0.050364 0.0118708 0 0 0 2.28255e-19 -6.09486e-19 -0.224509 1.60483e-19 -4.28522e-19 -0.000290844 1.56265e-16 5.85219e-17 -7.41347e-30 0.001415 
5040 1 0.0412118 -0.051077 0.0114479 0 0 0 0 0 -0.224509 0 0 -0.000290844 0 0 0 0.001415 
8294 1 0.0417911 -0.0460756 0.0112159 0 0 0 0 0 -0.224509 0 0 -0.000290844 0 0 0 0.001415 
164 1 0.0235073 -0.0400101 0.012556 0 0 0 -2.2256e-08 -2.97063e-07 -0.224508 -3.6968e-07 -4.93433e-06 -0.000282301 -0.000363557 2.72377e-05 2.67982e-17 0.001415 
7141 1 -0.0440609 -0.0300013 0.0124084 0 0 0 0 0 -0.224509 0 0 -0.000290844 0 0 0 0.001415 
6550 1 -0.00716818 -0.0295154 0.0120267 0 0 0 -4.27806e-18 6.93373e-19 -0.224509 -4.77848e-20 7.74479e-21 -0.000290844 -5.65925e-17 -3.49172e-16 9.29864e-32 0.001415 
9788 1 -0.0191042 -0.0222982 0.0122604 0 0 0 -7.58546e-18 -9.43228e-18 -0.224509 -5.48959e-19 -6.82614e-19 -0.000290844 5.66361e-15 -4.55469e-15 2.48787e-28 0.001415 
1405 1 0.0162037 -0.0193109 0.0121161 0 0 0 -4.02912e-17 -1.17873e-17 -0.224509 -1.11658e-18 -3.26658e-19 -0.000290844 1.98312e-15 -6.7787e-15 -1.20391e-28 0.001415 
8819 1 0.00974619 -0.0192248 0.0122912 0 0 0 1.63951e-18 5.04263e-17 -0.224509 3.28021e-20 1.00889e-18 -0.000290844 -8.39096e-15 2.72816e-16 -5.59536e-29 0.001415 
8587 1 -0.0404076 -0.0166605 0.0125584 0 0 0 4.46102e-17 -5.89138e-16 -0.224509 3.93304e-19 -5.19411e-18 -0.000290844 -3.17008e-16 -2.40042e-17 -3.08027e-29 0.001415 
4472 1 -0.0211077 -0.0159411 0.0123657 0 0 0 -1.80552e-17 6.17178e-17 -0.224509 -3.2762e-19 1.1199e-18 -0.000290844 -1.222e-14 -3.5749e-15 -1.10271e-28 0.001415 
5436 1 0.0238697 -0.0121851 0.0124809 0 0 0 9.01486e-19 -1.71296e-18 -0.224509 8.93122e-20 -1.69707e-19 -0.000290844 6.05626e-15 3.18725e-15 2.74934e-29 0.001415 
2098 1 -0.0163785 -0.0113032 0.0118791 0 0 0 -8.70413e-18 -1.57927e-18 -0.224509 -4.17831e-19 -7.58108e-20 -0.000290844 1.00422e-16 -5.53472e-16 -1.45941e-30 0.001415 
4519 1 0.0050482 -0.00799743 0.0129595 0 0 0 -3.85496e-16 4.60204e-16 -0.224509 -3.5926e-18 4.28884e-18 -0.000290844 8.55328e-16 7.16476e-16 5.40528e-28 0.001415 
3527 1 0.053278 -0.000195356 0.0115192 0 0 0 1.57523e-17 7.16415e-18 -0.224509 1.75667e-19 7.98932e-20 -0.000290844 -5.93027e-16 1.30393e-15 -5.7547e-31 0.001415 
4852 1 -0.0576017 0.00160357 0.0122802 0 0 0 1.52017e-17 2.49427e-17 -0.224509 3.63281e-19 5.96067e-19 -0.000290844 -4.79546e-15 2.92266e-15 2.49647e-29 0.001415 
2456 1 0.0231999 0.00341526 0.0124479 0 0 0 -2.4778e-16 1.55822e-16 -0.224509 -1.92561e-18 1.21097e-18 -0.000290844 1.10661e-15 1.75968e-15 -3.55812e-29 0.001415 
6444 1 -0.0485008 0.00805 0.0127701 0 0 0 -1.92379e-17 2.34363e-17 -0.224509 -6.70481e-19 8.16803e-19 -0.000290844 -6.77547e-15 -5.56171e-15 -2.24364e-28 0.001415 
7897 1 0.0202104 0.0106666 0.012623 0 0 0 8.33713e-18 3.97398e-17 -0.224509 1.79529e-19 8.55746e-19 -0.000290844 -9.44195e-15 1.98085e-15 -1.20695e-29 0.001415 
4430 1 -0.0607358 0.0123237 0.0129078 0 0 0 -5.90462e-16 1.26136e-16 -0.224509 -4.75841e-18 1.0165e-18 -0.000290844 7.3432e-16 3.43747e-15 -3.26281e-29 0.001415 
4345 1 0.0473197 0.0133822 0.0113814 0 0 0 9.05805e-18 3.18373e-18 -0.224509 -4.47263e-19 -1.57204e-19 -0.000290844 -2.03366e-16 5.78597e-16 -5.85584e-30 0.001415 
5821 1 0.071151 0.0126674 0.0126102 0 0 0 -7.92867e-18 7.62077e-18 -0.224509 -8.85996e-20 8.5159e-20 -0.000290844 -6.59882e-16 -6.86543e-16 -4.87362e-30 0.001415 
9994 1 -0.0272948 0.0197145 0.0113454 0 0 0 -2.92696e-17 -2.79612e-17 -0.224509 -8.12698e-19 -7.76368e-19 -0.000290844 5.25528e-15 -5.5012e-15 5.62549e-29 0.001415 
1279 1 -0.00741294 0.0227247 0.0122216 0 0 0 -3.34792e-17 -1.24017e-17 -0.224509 -7.97783e-19 -2.95523e-19 -0.000290844 6.20883e-16 -1.67612e-15 -3.8043e-29 0.001415 
3552 1 0.038076 0.0255707 0.0113847 0 0 0 -2.57221e-18 1.50477e-17 -0.224509 -1.10753e-19 6.47916e-19 -0.000290844 -3.83172e-15 -6.54985e-16 4.64642e-29 0.001415 
9955 1 0.0480973 0.0295036 0.0116801 0 0 0 0 0 -0.224509 0 0 -0.000290844 0 0 0 0.001415 
6215 1 -0.0229502 0.0331509 0.0126251 0 0 0 -2.50397e-18 -1.16423e-17 -0.224509 -9.54709e-20 -4.43898e-19 -0.000290844 1.0182e-14 -2.18989e-15 -7.73371e-29 0.001415 
8775 1 0.0134757 0.0326995 0.0112634 0 0 0 -2.33835e-18 3.93536e-18 -0.224509 -1.30413e-19 2.19481e-19 -0.000290844 1.43585e-17 8.53165e-18 -4.68201e-31 0.001415 
3967 1 -0.0257836 0.0351781 0.0128366 0 0 0 -2.11812e-16 6.62647e-16 -0.224509 -1.72893e-18 5.40889e-18 -0.000290844 3.49538e-15 1.11728e-15 -1.36253e-28 0.001415 
4099 1 0.0465216 0.0422608 0.0122583 0 0 0 -2.80941e-18 9.55261e-19 -0.224509 2.88936e-19 -9.82445e-20 -0.000290844 -2.7273e-17 -8.02096e-17 -1.51079e-31 0.001415 
9746 1 -0.0326219 0.0429159 0.011871 0 0 0 5.25555e-18 -3.38476e-17 -0.224509 1.21949e-19 -7.85398e-19 -0.000290844 8.72972e-15 1.35547e-15 -5.76532e-29 0.001415 
486 1 0.0131757 0.0431015 0.0118555 0 0 0 4.13177e-17 -3.50209e-17 -0.224509 8.94975e-19 -7.5858e-19 -0.000290844 8.09843e-15 9.55455e-15 2.40005e-29 0.001415 
4638 1 0.00148191 0.0455993 0.0124915 0 0 0 4.3983e-18 -2.36829e-18 -0.224509 -1.20343e-19 6.47996e-20 -0.000290844 -1.04685e-15 -1.94417e-15 6.22354e-29 0.001415 
7348 1 0.0388741 0.0496065 0.0127236 0 0 0 -2.49001e-17 -4.21084e-16 -0.224509 -2.46544e-19 -4.16928e-18 -0.000290844 5.93352e-15 -3.50869e-16 -6.1639e-30 0.001415 
8316 1 0.0241447 0.055508 0.0124231 0 0 0 0 0 -0.224509 0 0 -0.000290844 0 0 0 0.001415 
4831 1 0.0293284 0.0560787 0.0128924 0 0 0 6.49552e-16 -3.61081e-16 -0.224509 5.91861e-18 -3.29011e-18 -0.000290844 -8.53339e-15 -1.53508e-14 -6.55156e-28 0.001415 
6909 1 0.00964204 0.0590336 0.0129265 0 0 0 1.02245e-16 -6.16056e-17 -0.224509 1.61401e-18 -9.72486e-19 -0.000290844 1.28051e-14 2.12523e-14 -5.75785e-28 0.001415 
6048 1 -0.0014895 0.0671831 0.0112706 0 0 0 -3.20316e-17 -1.92485e-18 -0.224509 -9.76008e-19 -5.86505e-20 -0.000290844 3.08988e-16 -5.14189e-15 -2.55231e-29 0.001415 
3317 1 0.00879117 -0.0741345 0.0138384 0 0 0 1.10888e-15 -3.54856e-16 -0.224509 5.85298e-18 -1.87303e-18 -0.000290844 -6.53176e-15 -2.04109e-14 -1.01618e-27 0.001415 
4537 1 0.0348065 -0.0668743 0.0138164 0 0 0 3.51878e-16 -6.85259e-16 -0.224509 1.35422e-18 -2.63726e-18 -0.000290844 6.11116e-15 3.13806e-15 2.85306e-29 0.001415 
5120 1 -0.00732864 -0.0640527 0.0135726 0 0 0 -4.30238e-16 -1.51443e-16 -0.224509 -1.11697e-18 -3.9317e-19 -0.000290844 1.67422e-15 -4.75633e-15 9.58641e-29 0.001415 
8902 1 0.00739974 -0.0547957 0.0144031 0 0 0 -1.3131e-16 1.10858e-15 -0.224509 -5.72373e-19 4.83224e-18 -0.000290844 9.25975e-15 1.09681e-15 -2.18704e-29 0.001415 
4749 1 -0.0443437 -0.0522762 0.0143711 0 0 0 -8.53107e-16 1.24734e-16 -0.224509 -2.84006e-18 4.1525e-19 -0.000290844 2.93409e-15 2.00675e-14 -3.63351e-29 0.001415 
6408 1 -0.0176936 -0.0536375 0.0136596 0 0 0 1.19005e-15 -3.46947e-16 -0.224509 6.30322e-18 -1.83763e-18 -0.000290844 -3.94124e-15 -1.35187e-14 -2.59874e-28 0.001415 
9217 1 -0.0337766 -0.0507822 0.0131619 0 0 0 -2.50773e-16 6.49119e-16 -0.224509 -1.8965e-18 4.90903e-18 -0.000290844 5.12744e-16 1.98088e-16 6.87303e-28 0.001415 
5039 1 0.0393096 -0.0515993 0.0134771 0 0 0 9.92664e-16 2.72566e-16 -0.224509 1.28809e-17 3.53683e-18 -0.000290844 2.53604e-15 -9.23607e-15 5.27255e-28 0.001415 
8420 1 -0.0130316 -0.0490822 0.0143478 0 0 0 3.65269e-16 -9.75343e-16 -0.224509 1.42335e-18 -3.80063e-18 -0.000290844 -4.8925e-15 -1.83226e-15 6.59939e-28 0.001415 
8293 1 0.0410995 -0.0444363 0.0134167 0 0 0 4.76169e-16 -1.12861e-15 -0.224509 3.74778e-18 -8.88293e-18 -0.000290844 -2.59177e-14 -1.09349e-14 8.03644e-28 0.001415 
8782 1 0.00995582 -0.0396456 0.013355 0 0 0 8.3694e-16 3.81807e-16 -0.224509 2.64971e-18 1.20878e-18 -0.000290844 8.38797e-15 -1.83869e-14 -4.35233e-28 0.001415 
1765 1 -0.00582286 -0.0341936 0.0141099 0 0 0 9.49318e-16 -2.97078e-16 -0.224509 4.56779e-18 -1.42944e-18 -0.000290844 -8.50871e-15 -2.71898e-14 3.11384e-28 0.001415 
7142 1 -0.0430179 -0.0310366 0.014827 0 0 0 -7.34541e-16 7.29105e-16 -0.224509 -2.99895e-18 2.97675e-18 -0.000290844 1.27649e-14 1.286e-14 6.16063e-30 0.001415 
6549 1 -0.00774795 -0.0294214 0.0147951 0 0 0 5.07065e-16 -8.21834e-17 -0.224509 1.83868e-18 -2.98007e-19 -0.000290844 5.02425e-16 3.09993e-15 3.99482e-29 0.001415 
2898 1 -0.0015393 -0.0260351 0.0143821 0 0 0 6.53406e-16 -1.28989e-16 -0.224509 2.50942e-18 -4.95383e-19 -0.000290844 -1.74291e-16 -8.82891e-16 -1.66963e-29 0.001415 
1113 1 0.057839 -0.0250229 0.0132387 0 0 0 9.57997e-16 4.91496e-16 -0.224509 1.42253e-17 7.29821e-18 -0.000290844 5.91175e-15 -1.15229e-14 1.8758e-28 0.001415 
2604 1 -0.0264828 -0.0239558 0.0141066 0 0 0 9.65982e-16 -4.20583e-17 -0.224509 4.89253e-18 -2.13018e-19 -0.000290844 -1.31589e-15 -3.02228e-14 -1.22217e-29 0.001415 
7959 1 -0.0480224 -0.0227988 0.0147886 0 0 0 -1.00351e-15 6.25917e-16 -0.224509 -5.34867e-18 3.33611e-18 -0.000290844 1.11904e-14 1.79411e-14 1.0831e-27 0.001415 
8818 1 0.00968245 -0.0211851 0.0143313 0 0 0 3.40409e-17 1.04699e-15 -0.224509 1.39826e-19 4.3006e-18 -0.000290844 5.44936e-15 -1.77176e-16 -3.88087e-29 0.001415 
9789 1 -0.0179785 -0.0208985 0.0144472 0 0 0 -7.77471e-16 -9.66761e-16 -0.224509 -3.14998e-18 -3.9169e-18 -0.000290844 -1.67298e-14 1.34541e-14 1.16821e-28 0.001415 
4471 1 -0.0206599 -0.0174716 0.0147037 0 0 0 -2.56612e-16 8.77174e-16 -0.224509 -8.63558e-19 2.95189e-18 -0.000290844 1.63533e-15 4.78407e-16 -1.2126e-29 0.001415 
1404 1 0.0175339 -0.0189217 0.0145835 0 0 0 -9.31277e-16 -2.72447e-16 -0.224509 -2.92805e-18 -8.56605e-19 -0.000290844 -1.80062e-15 6.15487e-15 2.39087e-28 0.001415 
3530 1 0.0663652 -0.0174708 0.0131884 0 0 0 6.12639e-16 7.52442e-16 -0.224509 2.57082e-18 3.15748e-18 -0.000290844 2.77394e-15 -2.25854e-15 -7.73406e-28 0.001415 
4388 1 -0.00265555 -0.0161876 0.0138199 0 0 0 4.42607e-16 -2.15766e-16 -0.224509 1.20831e-18 -5.89035e-19 -0.000290844 1.84734e-15 3.78951e-15 4.00049e-29 0.001415 
2097 1 -0.0180782 -0.0116116 0.0141206 0 0 0 1.11883e-15 2.02999e-16 -0.224509 4.88054e-18 8.85522e-19 -0.000290844 4.24534e-15 -2.33982e-14 -3.86327e-28 0.001415 
9887 1 -0.0551901 -0.00373509 0.0134166 0 0 0 3.08678e-16 -3.85534e-16 -0.224509 8.2763e-19 -1.0337e-18 -0.000290844 4.02578e-15 3.22324e-15 -6.55751e-29 0.001415 
4853 1 -0.0586257 -7.65915e-05 0.0143142 0 0 0 5.74853e-16 9.43212e-16 -0.224509 2.51547e-18 4.12735e-18 -0.000290844 2.13902e-15 -1.30365e-15 -1.45121e-28 0.001415 
9743 1 -0.0492029 -0.00049722 0.0148194 0 0 0 4.96822e-16 5.65922e-16 -0.224509 1.86779e-18 2.12757e-18 -0.000290844 1.64764e-14 -1.44646e-14 6.17687e-28 0.001415 
9744 1 -0.0476714 0.00124731 0.0132008 0 0 0 8.57104e-18 9.76312e-18 -0.224509 2.28402e-19 2.60169e-19 -0.000290844 -3.47243e-15 3.04845e-15 -5.94992e-29 0.001415 
3403 1 0.0399954 0.00144601 0.0133357 0 0 0 -8.78915e-16 4.15921e-17 -0.224509 -1.13044e-17 5.3495e-19 -0.000290844 5.51805e-16 1.16606e-14 -5.20994e-29 0.001415 
3526 1 0.0549212 0.000551996 0.0136987 0 0 0 -1.11799e-15 -5.08461e-16 -0.224509 -5.09833e-18 -2.31872e-18 -0.000290844 -1.13907e-14 2.50456e-14 -1.30398e-27 0.001415 
3843 1 -0.0432547 0.00201405 0.0139212 0 0 0 9.0984e-16 6.19931e-16 -0.224509 4.28221e-18 2.91774e-18 -0.000290844 6.94079e-15 -1.01866e-14 1.24668e-27 0.001415 
6238 1 0.0476834 0.00358837 0.0134567 0 0 0 1.12497e-15 -7.23822e-16 -0.224509 5.56215e-18 -3.57878e-18 -0.000290844 -9.26837e-15 -1.44049e-14 4.80885e-28 0.001415 
1469 1 -0.0554428 0.00427207 0.0130797 0 0 0 5.1269e-16 4.94055e-16 -0.224509 4.32466e-18 4.16747e-18 -0.000290844 6.91856e-15 -7.17951e-15 -2.65045e-28 0.001415 
7479 1 0.00708078 0.00479504 0.0133635 0 0 0 -5.83658e-16 5.91865e-16 -0.224509 -1.71983e-18 1.74402e-18 -0.000290844 -2.79864e-17 -2.75983e-17 2.03441e-28 0.001415 
5546 1 -0.0286421 0.00814112 0.0132271 0 0 0 -8.77689e-16 -4.79845e-16 -0.224509 -8.34532e-18 -4.56251e-18 -0.000290844 -1.09567e-14 2.00411e-14 -9.23749e-28 0.001415 
7898 1 0.0197791 0.00861083 0.0145195 0 0 0 2.19722e-16 1.04733e-15 -0.224509 9.61836e-19 4.5847e-18 -0.000290844 1.56506e-14 -3.28338e-15 -1.92182e-28 0.001415 
4366 1 0.0434972 0.010956 0.0135346 0 0 0 -6.51508e-16 5.87708e-16 -0.224509 -1.86628e-18 1.68352e-18 -0.000290844 1.70582e-15 1.891e-15 -4.89144e-29 0.001415 
1176 1 0.023371 0.01534 0.014521 0 0 0 1.36748e-17 1.15873e-15 -0.224509 6.40319e-20 5.4257e-18 -0.000290844 1.07024e-14 -1.26306e-16 3.04784e-30 0.001415 
4344 1 0.0486622 0.0138541 0.0138276 0 0 0 -1.02e-15 -3.58511e-16 -0.224509 -3.87312e-18 -1.36133e-18 -0.000290844 -2.79264e-15 7.94537e-15 4.24917e-28 0.001415 
5629 1 -0.00809486 0.0186934 0.0137009 0 0 0 9.48861e-16 1.6599e-17 -0.224509 1.40727e-17 2.46182e-19 -0.000290844 5.61363e-16 -3.20896e-14 9.28763e-29 0.001415 
9993 1 -0.0262716 0.020692 0.0137963 0 0 0 -6.47758e-16 -6.18801e-16 -0.224509 -1.77208e-18 -1.69286e-18 -0.000290844 -1.02015e-14 1.06789e-14 5.92507e-28 0.001415 
3553 1 0.038325 0.0241144 0.0137985 0 0 0 -1.53171e-16 8.96067e-16 -0.224509 -4.46918e-19 2.61451e-18 -0.000290844 1.16321e-14 1.98837e-15 1.74836e-28 0.001415 
2811 1 0.0616855 0.0236687 0.0134176 0 0 0 1.94129e-16 9.84996e-16 -0.224509 6.93144e-19 3.51695e-18 -0.000290844 1.63863e-15 -3.22952e-16 -1.62232e-28 0.001415 
4218 1 0.00694369 0.0277865 0.0131609 0 0 0 1.27924e-16 -9.4544e-16 -0.224509 6.75143e-19 -4.98974e-18 -0.000290844 -1.18676e-14 -1.60576e-15 1.13888e-28 0.001415 
9956 1 0.047731 0.0274693 0.0136131 0 0 0 1.85611e-16 1.03084e-15 -0.224509 2.8726e-18 1.59538e-17 -0.000290844 9.97796e-15 -1.79661e-15 6.3768e-30 0.001415 
6007 1 0.0347873 0.0296881 0.0133829 0 0 0 2.95369e-16 3.30954e-16 -0.224509 9.39882e-19 1.05311e-18 -0.000290844 -2.22249e-15 1.98353e-15 5.28776e-29 0.001415 
8774 1 0.0137081 0.0323084 0.0140566 0 0 0 -1.92931e-16 3.24695e-16 -0.224509 -5.46559e-19 9.19839e-19 -0.000290844 -3.57599e-15 -2.12482e-15 9.00745e-30 0.001415 
6214 1 -0.0224995 0.0352466 0.0144728 0 0 0 -2.16362e-16 -1.00599e-15 -0.224509 -9.51819e-19 -4.42554e-18 -0.000290844 -1.95439e-14 4.20338e-15 5.44026e-28 0.001415 
7873 1 -0.0162209 0.0354611 0.0137063 0 0 0 4.24562e-16 5.02191e-16 -0.224509 1.21559e-18 1.43785e-18 -0.000290844 -6.12298e-15 5.17649e-15 2.0299e-28 0.001415 
6847 1 -0.0500743 0.0395872 0.0138629 0 0 0 -1.00097e-15 4.3174e-16 -0.224509 -1.46994e-17 6.34019e-18 -0.000290844 1.35284e-14 3.13649e-14 -1.4418e-27 0.001415 
487 1 0.0121003 0.044013 0.0143094 0 0 0 6.68115e-16 -5.66294e-16 -0.224509 1.84259e-18 -1.56178e-18 -0.000290844 -5.20369e-15 -6.13933e-15 1.00646e-29 0.001415 
9747 1 -0.0328934 0.0446643 0.0140796 0 0 0 1.71925e-16 -1.10726e-15 -0.224509 7.44335e-19 -4.79378e-18 -0.000290844 -1.17863e-14 -1.83008e-15 -1.90989e-29 0.001415 
8988 1 0.0105277 0.0515901 0.0145669 0 0 0 3.87394e-16 -5.48059e-16 -0.224509 1.25379e-18 -1.77377e-18 -0.000290844 -1.92902e-14 -1.36352e-14 6.06212e-29 0.001415 
8315 1 0.0261215 0.0546907 0.0142759 0 0 0 -1.08138e-15 4.47073e-16 -0.224509 -5.66664e-18 2.34275e-18 -0.000290844 4.58179e-15 1.10824e-14 5.90525e-28 0.001415 
6908 1 0.00786074 0.0601069 0.0148459 0 0 0 8.45186e-16 -5.09247e-16 -0.224509 3.15123e-18 -1.8987e-18 -0.000290844 -2.18738e-15 -3.63035e-15 6.87304e-28 0.001415 
6047 1 -2.16486e-05 0.0672713 0.0136886 0 0 0 -1.08708e-15 -6.53249e-17 -0.224509 -4.03473e-18 -2.42456e-19 -0.000290844 -4.46012e-16 7.42213e-15 4.81438e-29 0.001415 
7455 1 0.00864732 0.0657086 0.0138349 0 0 0 -4.6432e-17 1.10109e-15 -0.224509 -2.1975e-19 5.21114e-18 -0.000290844 4.27362e-15 1.80215e-16 -1.43438e-29 0.001415 
8757 1 0.00829498 0.0765507 0.0132814 0 0 0 0 0 -0.224509 0 0 -0.000290844 0 0 0 0.001415 