ITEM: TIMESTEP
20000
ITEM: NUMBER OF ATOMS
10248
ITEM: BOX BOUNDS ff ff ff
-0.2 0.2
-0.2 0.2
-0.01 0.5
ITEM: ATOMS id type x y z ix iy iz vx vy vz fx fy fz omegax omegay omegaz radius 
5124 1 -0.00943529 -0.0647942 0.00292491 0 0 0 -3.64237e-18 -1.2821e-18 -0.203922 -9.262e-19 -3.2602e-19 -0.000290871 5.23663e-18 -1.48769e-17 -4.9134e-32 0.001415 
168 1 0.0236553 -0.0380352 0.00186041 0 0 0 6.29843e-19 8.40685e-18 -0.203922 1.6502e-19 2.20261e-18 -0.000290871 1.65005e-17 -1.23622e-18 -2.75047e-32 0.001415 
9891 1 -0.0536741 -0.00562861 0.00280938 0 0 0 2.40027e-18 -2.9979e-18 -0.203922 6.395e-19 -7.98726e-19 -0.000290871 2.12909e-17 1.70465e-17 -2.15238e-32 0.001415 
8778 1 0.0127785 0.033873 0.00333369 0 0 0 -1.4499e-18 2.44012e-18 -0.203922 -3.91811e-19 6.59403e-19 -0.000290871 -9.64214e-18 -5.72927e-18 4.91714e-33 0.001415 
167 1 0.0236183 -0.0385289 0.00464676 0 0 0 -4.59419e-19 -6.13212e-18 -0.203922 -1.52113e-19 -2.03033e-18 -0.000290871 1.59588e-17 -1.19564e-18 2.08104e-32 0.001415 
5439 1 0.0255064 -0.015295 0.00520226 0 0 0 6.69785e-19 -1.27269e-18 -0.203922 -5.87533e-25 1.1164e-24 -0.000290871 -5.23961e-18 -2.75747e-18 2.22121e-33 0.001415 
4096 1 0.0493328 0.0413049 0.00475427 0 0 0 1.91234e-18 -6.50236e-19 -0.203922 1.40748e-19 -4.78574e-20 -0.000290871 -3.75387e-18 -1.10401e-17 2.01493e-32 0.001415 
5123 1 -0.00890863 -0.0646088 0.00569929 0 0 0 2.70594e-18 9.52483e-19 -0.203922 9.26201e-19 3.2602e-19 -0.000290871 3.78698e-18 -1.07586e-17 -4.63295e-32 0.001415 
8779 1 0.0136066 -0.0379801 0.00632305 0 0 0 1.14887e-19 5.24109e-20 -0.203922 -1.00779e-25 -4.59747e-26 -0.000290871 -4.07858e-19 8.94044e-19 -5.00813e-34 0.001415 
6552 1 -0.00600865 -0.0297033 0.00693981 0 0 0 7.942e-19 -1.28721e-19 -0.203922 -6.96669e-25 1.12914e-25 -0.000290871 -4.68525e-19 -2.89076e-18 -2.04116e-34 0.001415 
9890 1 -0.0540531 -0.00515523 0.00557365 0 0 0 -1.4882e-18 1.85874e-18 -0.203922 -6.39501e-19 7.98727e-19 -0.000290871 1.52831e-17 1.22364e-17 -2.1844e-32 0.001415 
4516 1 0.00201022 -0.00437069 0.00635974 0 0 0 -1.07237e-18 1.28019e-18 -0.203922 9.40676e-25 -1.12298e-24 -0.000290871 4.69501e-18 3.93283e-18 -1.24827e-32 0.001415 
5818 1 0.0744051 0.00953964 0.00586918 0 0 0 2.36875e-19 -2.27677e-19 -0.203922 -2.07786e-25 1.99717e-25 -0.000290871 -2.5321e-19 -2.6344e-19 -1.71801e-34 0.001415 
6447 1 -0.0515136 0.0117203 0.00618212 0 0 0 -1.1018e-18 1.34226e-18 -0.203922 9.66499e-25 -1.17742e-24 -0.000290871 4.42286e-18 3.63055e-18 -1.38206e-32 0.001415 
4347 1 0.0446345 0.0124385 0.0069389 0 0 0 -7.28324e-19 -2.55991e-19 -0.203922 6.38883e-25 2.24555e-25 -0.000290871 -2.68531e-19 7.64001e-19 -3.2512e-35 0.001415 
9996 1 -0.0293411 0.0177597 0.00689355 0 0 0 -1.75266e-18 -1.67431e-18 -0.203922 1.53743e-24 1.4687e-24 -0.000290871 -7.58399e-18 7.93888e-18 1.07777e-32 0.001415 
4221 1 0.00751144 0.0235905 0.00625198 0 0 0 3.08455e-20 -2.27968e-19 -0.203922 -2.70575e-26 1.99973e-25 -0.000290871 4.14674e-19 5.6108e-20 1.08561e-34 0.001415 
3550 1 0.0375782 0.0284832 0.00700705 0 0 0 -1.07719e-18 6.30164e-18 -0.203922 9.44904e-25 -5.52778e-24 -0.000290871 3.71303e-17 6.34695e-18 -1.16611e-32 0.001415 
2814 1 0.0624335 0.0274639 0.00630991 0 0 0 1.42423e-19 7.22644e-19 -0.203922 -1.24933e-25 -6.339e-25 -0.000290871 1.17371e-18 -2.31322e-19 1.95788e-33 0.001415 
8777 1 0.0130109 0.0334818 0.00612688 0 0 0 1.2501e-18 -2.10388e-18 -0.203922 3.91811e-19 -6.59403e-19 -0.000290871 -8.86893e-18 -5.26983e-18 4.7962e-33 0.001415 
4641 1 -0.00200478 0.0474767 0.00543146 0 0 0 -2.10654e-18 1.13428e-18 -0.203922 1.84785e-24 -9.94986e-25 -0.000290871 5.34916e-18 9.93426e-18 -2.4656e-33 0.001415 
5122 1 -0.00838197 -0.0644234 0.00847366 0 0 0 8.72156e-19 3.06996e-19 -0.203922 -5.04766e-21 -1.77676e-21 -0.000290871 2.23159e-18 -6.3398e-18 -5.40577e-32 0.001415 
8780 1 0.0123897 -0.0385353 0.008817 0 0 0 4.09664e-18 1.86886e-18 -0.203922 3.08726e-19 1.40839e-19 -0.000290871 -1.08561e-17 2.37971e-17 -4.40536e-32 0.001415 
166 1 0.0235813 -0.0390227 0.00743311 0 0 0 -1.14198e-19 -1.52426e-18 -0.203922 -1.29069e-20 -1.72276e-19 -0.000290871 7.22055e-19 -5.40965e-20 4.82196e-32 0.001415 
1407 1 0.0135434 -0.0200891 0.00763114 0 0 0 -6.80133e-19 -1.98974e-19 -0.203922 5.9661e-25 1.74539e-25 -0.000290871 -4.80108e-19 1.6411e-18 -6.54935e-34 0.001415 
8589 1 -0.0402517 -0.0187189 0.00773811 0 0 0 5.78222e-20 -7.63619e-19 -0.203922 -5.07214e-26 6.69844e-25 -0.000290871 3.63311e-18 2.75103e-19 -1.53643e-32 0.001415 
5438 1 0.0249608 -0.0142584 0.00777844 0 0 0 -4.44364e-19 8.44359e-19 -0.203922 3.89795e-25 -7.40668e-25 -0.000290871 -2.94826e-17 -1.55159e-17 -4.05786e-32 0.001415 
2100 1 -0.012979 -0.0106864 0.00784576 0 0 0 9.73039e-19 1.76547e-19 -0.203922 7.19047e-20 1.30463e-20 -0.000290871 8.99185e-19 -4.95585e-18 9.8246e-33 0.001415 
9889 1 -0.0544321 -0.00468185 0.00833791 0 0 0 -9.12068e-19 1.13916e-18 -0.203922 8.00063e-25 -9.99265e-25 -0.000290871 -6.00776e-18 -4.81011e-18 -3.20234e-34 0.001415 
4517 1 0.00302288 -0.0055796 0.00870962 0 0 0 1.07237e-18 -1.28019e-18 -0.203922 -9.40676e-25 1.12298e-24 -0.000290871 4.69501e-18 3.93283e-18 -1.24827e-32 0.001415 
7477 1 0.00556963 0.00632744 0.00857852 0 0 0 0 0 -0.203922 0 0 -0.000290871 0 0 0 0.001415 
6446 1 -0.0505093 0.0104969 0.00852808 0 0 0 5.20373e-19 -6.33936e-19 -0.203922 -4.30959e-20 5.25009e-20 -0.000290871 -3.34839e-18 -2.74856e-18 4.68306e-32 0.001415 
5819 1 0.0733204 0.0105822 0.00826612 0 0 0 -2.36875e-19 2.27677e-19 -0.203922 2.07786e-25 -1.99717e-25 -0.000290871 -2.5321e-19 -2.6344e-19 -1.71801e-34 0.001415 
4368 1 0.0417993 0.0124877 0.00880693 0 0 0 0 0 -0.203922 0 0 -0.000290871 0 0 0 0.001415 
1281 1 -0.00910888 0.0220965 0.00730814 0 0 0 -7.2008e-19 -2.66739e-19 -0.203922 6.31652e-25 2.33983e-25 -0.000290871 -8.98075e-19 2.42441e-18 -9.39216e-34 0.001415 
4220 1 0.00732219 0.0249892 0.00870489 0 0 0 2.02402e-19 -1.49588e-18 -0.203922 1.72546e-20 -1.27522e-19 -0.000290871 -7.68384e-18 -1.03967e-18 3.53298e-33 0.001415 
2813 1 0.0621842 0.0261988 0.00882909 0 0 0 7.8325e-20 3.97415e-19 -0.203922 1.63708e-20 8.30642e-20 -0.000290871 -4.74633e-19 9.35438e-20 -1.53814e-32 0.001415 
8776 1 0.0132433 0.0330907 0.00892006 0 0 0 6.58446e-20 -1.10814e-19 -0.203922 -9.92785e-21 1.67082e-20 -0.000290871 -4.26785e-19 -2.53591e-19 5.08879e-33 0.001415 
3969 1 -0.0266131 0.0377733 0.00832537 0 0 0 -2.3757e-18 7.43228e-18 -0.203922 -1.74078e-19 5.44597e-19 -0.000290871 2.41074e-17 7.70583e-18 -2.70502e-32 0.001415 
7875 1 -0.0151895 0.0366812 0.0087263 0 0 0 6.32313e-19 7.47927e-19 -0.203922 4.65025e-20 5.50052e-20 -0.000290871 1.059e-17 -8.95304e-18 -9.871e-33 0.001415 
484 1 0.0153265 0.0412785 0.00739755 0 0 0 2.85395e-18 -2.41901e-18 -0.203922 -2.50348e-24 2.12194e-24 -0.000290871 -1.26425e-17 -1.49156e-17 1.11473e-32 0.001415 
4097 1 0.0483957 0.0416236 0.00740555 0 0 0 -4.5271e-19 1.53931e-19 -0.203922 -1.40749e-19 4.78578e-20 -0.000290871 -5.27469e-18 -1.55128e-17 1.86872e-32 0.001415 
4640 1 -0.000842548 0.0468509 0.00793475 0 0 0 2.10654e-18 -1.13428e-18 -0.203922 -1.84785e-24 9.94986e-25 -0.000290871 5.34916e-18 9.93426e-18 -2.4656e-33 0.001415 
7350 1 0.0388042 0.0484249 0.00763862 0 0 0 -4.44054e-21 -7.50936e-20 -0.203922 3.89523e-27 6.58718e-26 -0.000290871 2.5958e-19 -1.53499e-20 3.67294e-36 0.001415 
6406 1 -0.013834 -0.0547628 0.0101254 0 0 0 2.36567e-18 -6.89684e-19 -0.203922 1.73968e-19 -5.07184e-20 -0.000290871 -7.16551e-18 -2.45782e-17 -6.07114e-32 0.001415 
4747 1 -0.048396 -0.0516837 0.0109142 0 0 0 -7.01993e-18 1.02639e-18 -0.203922 -5.15449e-19 7.53645e-20 -0.000290871 -1.02259e-17 -6.99393e-17 4.85096e-32 0.001415 
8904 1 0.00698378 -0.051284 0.0104335 0 0 0 0 0 -0.203922 0 0 -0.000290871 0 0 0 0.001415 
9219 1 -0.0350531 -0.0474779 0.00919728 0 0 0 0 0 -0.203922 0 0 -0.000290871 0 0 0 0.001415 
8295 1 0.0424827 -0.0477148 0.009465 0 0 0 0 0 -0.203922 0 0 -0.000290871 0 0 0 0.001415 
165 1 0.0235443 -0.0395164 0.0102195 0 0 0 -4.60329e-20 -6.14426e-19 -0.203922 1.60678e-21 2.14465e-20 -0.000290871 6.84303e-17 -5.12681e-18 3.34568e-31 0.001415 
6551 1 -0.00658842 -0.0296093 0.00970819 0 0 0 -7.80823e-20 1.26553e-20 -0.203922 5.27778e-20 -8.55405e-21 -0.000290871 -6.501e-19 -4.01107e-18 2.99773e-33 0.001415 
9787 1 -0.0202299 -0.023698 0.0105233 0 0 0 -9.88459e-19 -1.22912e-18 -0.203922 -7.28016e-20 -9.05265e-20 -0.000290871 -1.25228e-17 1.00709e-17 7.78978e-33 0.001415 
1406 1 0.0148736 -0.0197 0.0100986 0 0 0 6.80133e-19 1.98974e-19 -0.203922 -5.9661e-25 -1.74539e-25 -0.000290871 -4.80108e-19 1.6411e-18 -6.54935e-34 0.001415 
8588 1 -0.0403296 -0.0176897 0.0103732 0 0 0 5.10163e-19 -6.73739e-18 -0.203922 4.48806e-20 -5.92709e-19 -0.000290871 -2.41952e-16 -1.83209e-17 1.46753e-31 0.001415 
8820 1 0.00980992 -0.0172644 0.010701 0 0 0 0 0 -0.203922 0 0 -0.000290871 0 0 0 0.001415 
3529 1 0.0670132 -0.0166749 0.011001 0 0 0 0 0 -0.203922 0 0 -0.000290871 0 0 0 0.001415 
4473 1 -0.0215554 -0.0144106 0.0104776 0 0 0 0 0 -0.203922 0 0 -0.000290871 0 0 0 0.001415 
5437 1 0.0244153 -0.0132218 0.0103546 0 0 0 1.66653e-18 -3.16665e-18 -0.203922 1.39192e-19 -2.64485e-19 -0.000290871 5.55301e-18 2.92241e-18 1.13367e-32 0.001415 
2099 1 -0.0146787 -0.0109948 0.0100873 0 0 0 9.73709e-38 -9.81578e-34 -0.203922 -8.54134e-44 -7.22215e-35 -0.000290871 1.79837e-18 -9.9117e-18 1.15055e-32 0.001415 
3528 1 0.0516347 -0.000942708 0.0097896 0 0 0 -2.64704e-18 -1.20387e-18 -0.203922 -1.94583e-19 -8.84962e-20 -0.000290871 -1.43378e-17 3.15255e-17 4.73193e-32 0.001415 
2457 1 0.0227749 0.00368251 0.0101126 0 0 0 0 0 -0.203922 0 0 -0.000290871 0 0 0 0.001415 
6445 1 -0.0495051 0.00927345 0.010874 0 0 0 3.97201e-21 -4.83884e-21 -0.203922 6.63382e-23 -8.08154e-23 -0.000290871 -8.27611e-18 -6.79353e-18 4.69378e-32 0.001415 
4431 1 -0.0620527 0.012605 0.0108686 0 0 0 -3.53515e-18 7.55187e-19 -0.203922 -2.99901e-19 6.40656e-20 -0.000290871 2.93819e-18 1.37541e-17 5.59757e-31 0.001415 
4346 1 0.0459771 0.0129104 0.00938507 0 0 0 -9.22334e-19 -3.24182e-19 -0.203922 -1.21503e-19 -4.27059e-20 -0.000290871 -5.13386e-18 1.46064e-17 -1.53334e-32 0.001415 
5820 1 0.0722357 0.0116248 0.0106631 0 0 0 1.3298e-18 -1.27816e-18 -0.203922 9.7795e-20 -9.39973e-20 -0.000290871 -1.59783e-17 -1.66239e-17 1.6562e-32 0.001415 
9995 1 -0.0283179 0.0187371 0.0093444 0 0 0 1.75266e-18 1.67431e-18 -0.203922 -1.53743e-24 -1.4687e-24 -0.000290871 -7.58399e-18 7.93888e-18 1.07777e-32 0.001415 
1280 1 -0.00826091 0.0224106 0.00998977 0 0 0 7.2008e-19 2.66739e-19 -0.203922 -6.31652e-25 -2.33983e-25 -0.000290871 -8.98075e-19 2.42441e-18 -9.39216e-34 0.001415 
3551 1 0.0378271 0.027027 0.0094208 0 0 0 1.07719e-18 -6.30164e-18 -0.203922 -9.44904e-25 5.52778e-24 -0.000290871 3.71303e-17 6.34695e-18 -1.16611e-32 0.001415 
3968 1 -0.0261983 0.0364757 0.0108059 0 0 0 2.3757e-18 -7.43228e-18 -0.203922 1.74078e-19 -5.44597e-19 -0.000290871 2.41074e-17 7.70583e-18 -2.70502e-32 0.001415 
9745 1 -0.0323504 0.0411674 0.0101122 0 0 0 0 0 -0.203922 0 0 -0.000290871 0 0 0 0.001415 
485 1 0.0142511 0.04219 0.00985145 0 0 0 -2.85395e-18 2.41901e-18 -0.203922 2.50348e-24 -2.12194e-24 -0.000290871 -1.26425e-17 -1.49156e-17 1.11473e-32 0.001415 
4098 1 0.0474587 0.0419422 0.0100568 0 0 0 -9.16528e-19 3.1164e-19 -0.203922 4.01571e-20 -1.36543e-20 -0.000290871 1.10355e-18 3.24553e-18 -2.67407e-32 0.001415 
4639 1 0.000319678 0.0462251 0.0104381 0 0 0 -2.35939e-18 1.27043e-18 -0.203922 -1.73517e-19 9.34312e-20 -0.000290871 1.73592e-17 3.22389e-17 -2.5506e-32 0.001415 
7349 1 0.0388392 0.0490157 0.010406 0 0 0 -6.11571e-20 -1.03422e-18 -0.203922 -6.18859e-21 -1.04655e-19 -0.000290871 -9.45665e-17 5.59204e-18 -1.93962e-32 0.001415 
3318 1 0.0108764 -0.0748018 0.0124952 0 0 0 0 0 -0.203922 0 0 -0.000290871 0 0 0 0.001415 
5121 1 -0.0078553 -0.064238 0.011248 0 0 0 -7.1413e-19 -2.51371e-19 -0.203922 -7.17656e-20 -2.52613e-20 -0.000290871 -3.61483e-17 1.02695e-16 9.38552e-31 0.001415 
6407 1 -0.0157638 -0.0542001 0.0121174 0 0 0 -2.36567e-18 6.89684e-19 -0.203922 -1.73968e-19 5.07184e-20 -0.000290871 -7.16551e-18 -2.45782e-17 -6.07114e-32 0.001415 
4748 1 -0.0463698 -0.05198 0.0128676 0 0 0 4.98908e-18 -7.29461e-19 -0.203922 3.29766e-19 -4.82156e-20 -0.000290871 -3.47819e-17 -2.37887e-16 4.99647e-31 0.001415 
8903 1 0.00719176 -0.0530399 0.0126432 0 0 0 -1.52246e-19 1.28533e-18 -0.203922 -1.62525e-20 1.37211e-19 -0.000290871 -9.94223e-17 -1.17765e-17 5.42573e-31 0.001415 
8421 1 -0.0125515 -0.050364 0.0123207 0 0 0 0 0 -0.203922 0 0 -0.000290871 0 0 0 0.001415 
5040 1 0.0412118 -0.051077 0.0118978 0 0 0 0 0 -0.203922 0 0 -0.000290871 0 0 0 0.001415 
9218 1 -0.0344149 -0.0491301 0.0114045 0 0 0 -4.61225e-19 1.19387e-18 -0.203922 -4.85506e-20 1.25672e-19 -0.000290871 -7.20095e-17 -2.78193e-17 2.86577e-31 0.001415 
8294 1 0.0417911 -0.0460756 0.0116658 0 0 0 0 0 -0.203922 0 0 -0.000290871 0 0 0 0.001415 
8781 1 0.0111727 -0.0390904 0.0113109 0 0 0 -4.21153e-18 -1.92128e-18 -0.203922 -3.08726e-19 -1.40839e-19 -0.000290871 -1.04482e-17 2.2903e-17 -4.35527e-32 0.001415 
7141 1 -0.0440609 -0.0300013 0.0128583 0 0 0 0 0 -0.203922 0 0 -0.000290871 0 0 0 0.001415 
6550 1 -0.00716818 -0.0295154 0.0124766 0 0 0 -7.16117e-19 1.16066e-19 -0.203922 -5.27771e-20 8.55393e-21 -0.000290871 -1.81575e-19 -1.1203e-18 3.20185e-33 0.001415 
9788 1 -0.0191042 -0.0222982 0.0127102 0 0 0 7.07228e-19 8.79416e-19 -0.203922 2.88345e-20 3.58548e-20 -0.000290871 8.23651e-17 -6.62382e-17 -4.40644e-31 0.001415 
1405 1 0.0162037 -0.0193109 0.012566 0 0 0 -2.99731e-18 -8.7687e-19 -0.203922 -2.64559e-19 -7.73974e-20 -0.000290871 -7.81901e-19 2.67269e-18 3.37445e-31 0.001415 
8819 1 0.00974619 -0.0192248 0.012741 0 0 0 1.40288e-19 4.31482e-18 -0.203922 1.19526e-20 3.67625e-19 -0.000290871 4.17424e-18 -1.35717e-19 -6.94013e-31 0.001415 
4472 1 -0.0211077 -0.0159411 0.0128156 0 0 0 -1.87888e-18 6.42254e-18 -0.203922 -1.51585e-19 5.18159e-19 -0.000290871 -1.39453e-16 -4.07962e-17 4.22998e-31 0.001415 
4389 1 -0.00210167 -0.0164576 0.0115076 0 0 0 1.50683e-19 -7.34561e-20 -0.203922 2.43869e-20 -1.18883e-20 -0.000290871 -3.91747e-17 -8.03603e-17 -1.39133e-31 0.001415 
2098 1 -0.0163785 -0.0113032 0.0123289 0 0 0 -9.73039e-19 -1.76547e-19 -0.203922 -7.19047e-20 -1.30463e-20 -0.000290871 8.99185e-19 -4.95585e-18 1.6809e-33 0.001415 
4518 1 0.00403554 -0.00678852 0.0110595 0 0 0 -2.22353e-18 2.65444e-18 -0.203922 -1.88835e-19 2.25431e-19 -0.000290871 -2.28297e-17 -1.91236e-17 -1.58278e-30 0.001415 
9888 1 -0.0548111 -0.00420847 0.0111022 0 0 0 2.99346e-19 -3.73878e-19 -0.203922 3.43074e-20 -4.28494e-20 -0.000290871 -8.80743e-17 -7.05168e-17 -2.91547e-31 0.001415 
3527 1 0.053278 -0.000195356 0.0119691 0 0 0 2.64704e-18 1.20387e-18 -0.203922 1.94583e-19 8.84962e-20 -0.000290871 -1.43378e-17 3.15255e-17 4.73193e-32 0.001415 
4852 1 -0.0576017 0.00160357 0.01273 0 0 0 7.32187e-19 1.20136e-18 -0.203922 7.60809e-20 1.24833e-19 -0.000290871 -3.08918e-17 1.88274e-17 4.15158e-31 0.001415 
2456 1 0.0231999 0.00341526 0.0128977 0 0 0 -4.1975e-17 2.6397e-17 -0.203922 -3.8497e-18 2.42097e-18 -0.000290871 -4.92262e-17 -7.82768e-17 -4.64625e-31 0.001415 
1470 1 -0.0541433 0.00552442 0.0113497 0 0 0 2.35056e-18 2.26513e-18 -0.203922 2.11276e-19 2.03597e-19 -0.000290871 -7.40469e-17 7.68397e-17 3.89747e-32 0.001415 
7478 1 0.0063252 0.00556124 0.0111959 0 0 0 0 0 -0.203922 0 0 -0.000290871 0 0 0 0.001415 
5545 1 -0.0302182 0.00727945 0.0114901 0 0 0 0 0 -0.203922 0 0 -0.000290871 0 0 0 0.001415 
4367 1 0.0426483 0.0117219 0.0113957 0 0 0 -6.60403e-19 5.95731e-19 -0.203922 -7.43616e-20 6.70796e-20 -0.000290871 8.61721e-17 9.55267e-17 7.38416e-31 0.001415 
4345 1 0.0473197 0.0133822 0.0118312 0 0 0 1.65066e-18 5.80174e-19 -0.203922 1.21502e-19 4.27057e-20 -0.000290871 -4.86533e-18 1.38424e-17 -1.53009e-32 0.001415 
9994 1 -0.0272948 0.0197145 0.0117953 0 0 0 -2.27902e-18 -2.17715e-18 -0.203922 -1.98076e-19 -1.89221e-19 -0.000290871 7.45324e-17 -7.80202e-17 1.15345e-30 0.001415 
1279 1 -0.00741294 0.0227247 0.0126714 0 0 0 -2.75391e-18 -1.02013e-18 -0.203922 -2.38449e-19 -8.83286e-20 -0.000290871 -6.95743e-17 1.87821e-16 1.41451e-31 0.001415 
2812 1 0.0619348 0.0249338 0.0113483 0 0 0 5.36573e-20 2.72253e-19 -0.203922 1.18638e-20 6.01958e-20 -0.000290871 1.68084e-16 -3.31271e-17 -1.21954e-30 0.001415 
4219 1 0.00713294 0.0263879 0.0111578 0 0 0 3.70088e-20 -2.73519e-19 -0.203922 8.23776e-21 -6.08824e-20 -0.000290871 -5.07323e-17 -6.8644e-18 9.73203e-32 0.001415 
3552 1 0.038076 0.0255707 0.0118346 0 0 0 -5.59074e-20 3.27064e-19 -0.203922 -8.43177e-21 4.93266e-20 -0.000290871 -7.23657e-17 -1.237e-17 7.38789e-31 0.001415 
9955 1 0.0480973 0.0295036 0.0121299 0 0 0 0 0 -0.203922 0 0 -0.000290871 0 0 0 0.001415 
6216 1 -0.023401 0.0310553 0.0112272 0 0 0 -3.96104e-19 -1.84171e-18 -0.203922 -2.91948e-20 -1.35743e-19 -0.000290871 -1.42157e-17 3.05743e-18 -2.85999e-32 0.001415 
8775 1 0.0134757 0.0326995 0.0117132 0 0 0 6.8839e-20 -1.15854e-19 -0.203922 -6.87287e-22 1.15668e-21 -0.000290871 4.88643e-17 2.90347e-17 -1.11606e-31 0.001415 
7874 1 -0.0157052 0.0360712 0.0114412 0 0 0 -6.32313e-19 -7.47927e-19 -0.203922 -4.65025e-20 -5.50052e-20 -0.000290871 1.059e-17 -8.95304e-18 -9.871e-33 0.001415 
4099 1 0.0465216 0.0422608 0.0127081 0 0 0 -5.43097e-19 1.84665e-19 -0.203922 -4.01559e-20 1.36539e-20 -0.000290871 2.62437e-18 7.71823e-18 -2.52787e-32 0.001415 
9746 1 -0.0326219 0.0429159 0.0123209 0 0 0 2.86041e-19 -1.84221e-18 -0.203922 2.82176e-20 -1.81731e-19 -0.000290871 1.05938e-16 1.6449e-17 -2.12495e-31 0.001415 
486 1 0.0131757 0.0431015 0.0123053 0 0 0 3.95304e-18 -3.35059e-18 -0.203922 3.24846e-19 -2.75339e-19 -0.000290871 1.20418e-16 1.42069e-16 1.79862e-30 0.001415 
8316 1 0.0241447 0.055508 0.0128729 0 0 0 0 0 -0.203922 0 0 -0.000290871 0 0 0 0.001415 
6048 1 -0.0014895 0.0671831 0.0117205 0 0 0 -1.59324e-18 -9.57415e-20 -0.203922 -1.62415e-19 -9.75987e-21 -0.000290871 -3.4378e-19 5.72088e-18 -1.51781e-31 0.001415 
3317 1 0.00879117 -0.0741345 0.0142883 0 0 0 1.12788e-16 -3.60938e-17 -0.203922 1.03835e-17 -3.32287e-18 -0.000290871 -2.02068e-16 -6.31436e-16 1.05852e-32 0.001415 
4537 1 0.0348065 -0.0668743 0.0142662 0 0 0 3.67526e-17 -7.15733e-17 -0.203922 3.36038e-18 -6.54412e-18 -0.000290871 3.271e-16 1.67965e-16 -9.48436e-32 0.001415 
5120 1 -0.00732864 -0.0640527 0.0140224 0 0 0 -4.48809e-17 -1.57979e-17 -0.203922 -4.05514e-18 -1.4274e-18 -0.000290871 4.79975e-17 -1.36358e-16 1.06289e-30 0.001415 
4749 1 -0.0443437 -0.0522762 0.014821 0 0 0 -8.15393e-17 1.1922e-17 -0.203922 -7.14828e-18 1.04516e-18 -0.000290871 9.05049e-17 6.19e-16 1.29117e-30 0.001415 
6408 1 -0.0176936 -0.0536375 0.0141095 0 0 0 1.21183e-16 -3.53297e-17 -0.203922 1.12253e-17 -3.27262e-18 -0.000290871 -2.03156e-16 -6.9684e-16 1.17064e-30 0.001415 
9217 1 -0.0337766 -0.0507822 0.0136118 0 0 0 -3.80964e-17 9.86114e-17 -0.203922 -3.46091e-18 8.95845e-18 -0.000290871 5.71771e-16 2.20891e-16 2.92176e-30 0.001415 
5039 1 0.0393096 -0.0515993 0.013927 0 0 0 1.0935e-16 3.00254e-17 -0.203922 1.00703e-17 2.76511e-18 -0.000290871 2.07e-16 -7.53879e-16 -4.95197e-31 0.001415 
8420 1 -0.0130316 -0.0490822 0.0147976 0 0 0 3.63189e-17 -9.69789e-17 -0.203922 3.32182e-18 -8.86994e-18 -0.000290871 -2.42659e-16 -9.08767e-17 -2.21129e-30 0.001415 
8293 1 0.0410995 -0.0444363 0.0138666 0 0 0 4.7956e-17 -1.13665e-16 -0.203922 4.39949e-18 -1.04276e-17 -0.000290871 -9.08684e-16 -3.83381e-16 -6.13012e-31 0.001415 
8782 1 0.00995582 -0.0396456 0.0138049 0 0 0 8.1395e-17 3.71319e-17 -0.203922 7.33711e-18 3.34714e-18 -0.000290871 2.02159e-16 -4.43142e-16 1.76812e-30 0.001415 
164 1 0.0235073 -0.0400101 0.0130058 0 0 0 3.00209e-18 4.00705e-17 -0.203922 2.66884e-19 3.56225e-18 -0.000290871 -2.07247e-16 1.5527e-17 3.97925e-31 0.001415 
1765 1 -0.00582286 -0.0341936 0.0145597 0 0 0 9.29762e-17 -2.90958e-17 -0.203922 8.47465e-18 -2.65204e-18 -0.000290871 -2.31688e-16 -7.40363e-16 -2.58894e-30 0.001415 
2898 1 -0.0015393 -0.0260351 0.0148319 0 0 0 6.84824e-17 -1.35191e-17 -0.203922 6.27397e-18 -1.23854e-18 -0.000290871 4.42129e-17 2.23965e-16 -5.00609e-31 0.001415 
1113 1 0.057839 -0.0250229 0.0136885 0 0 0 1.02355e-16 5.25128e-17 -0.203922 9.44659e-18 4.84653e-18 -0.000290871 2.54558e-16 -4.96171e-16 -5.45658e-31 0.001415 
2604 1 -0.0264828 -0.0239558 0.0145564 0 0 0 9.58037e-17 -4.17124e-18 -0.203922 8.83952e-18 -3.84868e-19 -0.000290871 -3.09071e-17 -7.09863e-16 2.39674e-31 0.001415 
8818 1 0.00968245 -0.0211851 0.0147811 0 0 0 3.36346e-18 1.03449e-16 -0.203922 3.0563e-19 9.40021e-18 -0.000290871 7.21554e-16 -2.34599e-17 -7.6241e-31 0.001415 
3530 1 0.0663652 -0.0174708 0.0136383 0 0 0 6.54845e-17 8.04279e-17 -0.203922 6.11658e-18 7.51238e-18 -0.000290871 -1.91135e-16 1.55622e-16 1.76815e-30 0.001415 
8587 1 -0.0404076 -0.0166605 0.0130082 0 0 0 5.22842e-18 -6.90484e-17 -0.203922 4.77303e-19 -6.30343e-18 -0.000290871 1.15506e-16 8.74627e-18 2.03061e-31 0.001415 
4388 1 -0.00265555 -0.0161876 0.0142697 0 0 0 4.5776e-17 -2.23152e-17 -0.203922 4.12658e-18 -2.01166e-18 -0.000290871 4.64276e-17 9.52383e-17 -2.27529e-31 0.001415 
2097 1 -0.0180782 -0.0116116 0.0145705 0 0 0 1.11349e-16 2.0203e-17 -0.203922 1.02526e-17 1.86023e-18 -0.000290871 1.59318e-16 -8.78082e-16 -1.15719e-30 0.001415 
5436 1 0.0238697 -0.0121851 0.0129308 0 0 0 -1.08971e-18 2.07062e-18 -0.203922 -6.1286e-20 1.16452e-19 -0.000290871 -9.93425e-17 -5.22814e-17 -1.88253e-31 0.001415 
4519 1 0.0050482 -0.00799743 0.0134094 0 0 0 -5.20242e-17 6.21064e-17 -0.203922 -4.54401e-18 5.42464e-18 -0.000290871 3.60583e-16 3.02047e-16 -1.964e-30 0.001415 
9887 1 -0.0551901 -0.00373509 0.0138664 0 0 0 3.22047e-17 -4.02231e-17 -0.203922 2.93983e-18 -3.6718e-18 -0.000290871 1.4333e-16 1.14758e-16 -9.50411e-31 0.001415 
4853 1 -0.0586257 -7.65915e-05 0.0147641 0 0 0 5.78581e-17 9.49329e-17 -0.203922 5.34019e-18 8.76212e-18 -0.000290871 4.46294e-16 -2.72e-16 8.59198e-31 0.001415 
9744 1 -0.0476714 0.00124731 0.0136507 0 0 0 2.59212e-19 2.95264e-19 -0.203922 3.29451e-20 3.75272e-20 -0.000290871 -2.96513e-17 2.60308e-17 -8.478e-32 0.001415 
3403 1 0.0399954 0.00144601 0.0137856 0 0 0 -9.40335e-17 4.44986e-18 -0.203922 -8.51864e-18 4.0312e-19 -0.000290871 3.02475e-17 6.39182e-16 1.53383e-31 0.001415 
3526 1 0.0549212 0.000551996 0.0141485 0 0 0 -1.12965e-16 -5.13764e-17 -0.203922 -1.0267e-17 -4.66942e-18 -0.000290871 -4.0831e-16 8.9778e-16 -6.78938e-30 0.001415 
3843 1 -0.0432547 0.00201405 0.0143711 0 0 0 8.96138e-17 6.10595e-17 -0.203922 8.30301e-18 5.65736e-18 -0.000290871 4.09512e-16 -6.0102e-16 -3.44491e-30 0.001415 
6238 1 0.0476834 0.00358837 0.0139066 0 0 0 1.16141e-16 -7.47272e-17 -0.203922 1.07925e-17 -6.9441e-18 -0.000290871 -1.81186e-16 -2.816e-16 2.41295e-30 0.001415 
1469 1 -0.0554428 0.00427207 0.0135295 0 0 0 8.32752e-17 8.02485e-17 -0.203922 7.62926e-18 7.35196e-18 -0.000290871 5.24166e-16 -5.43936e-16 -6.94343e-32 0.001415 
7479 1 0.00708078 0.00479504 0.0138134 0 0 0 -6.01328e-17 6.09783e-17 -0.203922 -5.4872e-18 5.56436e-18 -0.000290871 -1.22226e-16 -1.20531e-16 -2.18547e-30 0.001415 
6444 1 -0.0485008 0.00805 0.01322 0 0 0 -5.31623e-19 6.47641e-19 -0.203922 -9.15681e-20 1.11551e-19 -0.000290871 -1.17096e-16 -9.61196e-17 1.88033e-31 0.001415 
5546 1 -0.0286421 0.00814112 0.0136769 0 0 0 -1.15105e-16 -6.29296e-17 -0.203922 -1.07324e-17 -5.86757e-18 -0.000290871 -5.40891e-16 9.89349e-16 1.73989e-30 0.001415 
7897 1 0.0202104 0.0106666 0.0130728 0 0 0 5.94142e-19 2.83204e-18 -0.203922 5.34931e-20 2.54981e-19 -0.000290871 2.78075e-17 -5.83381e-18 2.93459e-31 0.001415 
4366 1 0.0434972 0.010956 0.0139845 0 0 0 -6.85133e-17 6.1804e-17 -0.203922 -6.29035e-18 5.67435e-18 -0.000290871 -2.78819e-17 -3.09087e-17 -1.27538e-30 0.001415 
4430 1 -0.0607358 0.0123237 0.0133577 0 0 0 -8.08803e-17 1.72779e-17 -0.203922 -7.21946e-18 1.54224e-18 -0.000290871 7.5642e-17 3.54092e-16 4.49084e-33 0.001415 
5821 1 0.071151 0.0126674 0.01306 0 0 0 -1.3298e-18 1.27816e-18 -0.203922 -9.7795e-20 9.39973e-20 -0.000290871 -1.59783e-17 -1.66239e-17 1.6562e-32 0.001415 
4344 1 0.0486622 0.0138541 0.0142774 0 0 0 -1.018e-16 -3.57806e-17 -0.203922 -9.28929e-18 -3.265e-18 -0.000290871 -8.34923e-17 2.37545e-16 1.54562e-30 0.001415 
5629 1 -0.00809486 0.0186934 0.0141507 0 0 0 9.9301e-17 1.73713e-18 -0.203922 9.13627e-18 1.59826e-19 -0.000290871 1.57647e-17 -9.0117e-16 -1.75606e-31 0.001415 
9993 1 -0.0262716 0.020692 0.0142461 0 0 0 -6.30586e-17 -6.02396e-17 -0.203922 -5.64158e-18 -5.38938e-18 -0.000290871 -4.68963e-16 4.90908e-16 -2.33395e-31 0.001415 
3553 1 0.038325 0.0241144 0.0142483 0 0 0 -1.49011e-17 8.71729e-17 -0.203922 -1.33304e-18 7.79841e-18 -0.000290871 6.42202e-16 1.09776e-16 5.85742e-31 0.001415 
2811 1 0.0616855 0.0236687 0.0138675 0 0 0 1.96937e-17 9.99244e-17 -0.203922 1.78253e-18 9.04441e-18 -0.000290871 -1.0847e-16 2.1378e-17 -1.08118e-30 0.001415 
4218 1 0.00694369 0.0277865 0.0136107 0 0 0 1.26576e-17 -9.35476e-17 -0.203922 1.13736e-18 -8.40581e-18 -0.000290871 -4.71295e-16 -6.37691e-17 -3.40365e-31 0.001415 
9956 1 0.047731 0.0274693 0.0140629 0 0 0 1.96671e-17 1.09227e-16 -0.203922 1.78618e-18 9.92006e-18 -0.000290871 7.04663e-16 -1.2688e-16 -4.44526e-31 0.001415 
6007 1 0.0347873 0.0296881 0.0138328 0 0 0 2.98808e-17 3.34806e-17 -0.203922 2.68752e-18 3.01129e-18 -0.000290871 -1.63396e-16 1.45827e-16 2.83015e-31 0.001415 
8774 1 0.0137081 0.0323084 0.0145064 0 0 0 -2.00544e-17 3.37508e-17 -0.203922 -1.81258e-18 3.0505e-18 -0.000290871 -1.2542e-16 -7.45231e-17 1.84927e-31 0.001415 
6215 1 -0.0229502 0.0331509 0.013075 0 0 0 2.05251e-19 9.54325e-19 -0.203922 7.5431e-21 3.50721e-20 -0.000290871 1.46008e-16 -3.14025e-17 -5.55886e-31 0.001415 
3967 1 -0.0257836 0.0351781 0.0132865 0 0 0 -3.36202e-17 1.0518e-16 -0.203922 -3.10941e-18 9.72769e-18 -0.000290871 2.14924e-16 6.86996e-17 2.04474e-30 0.001415 
7873 1 -0.0162209 0.0354611 0.0141561 0 0 0 4.37047e-17 5.16958e-17 -0.203922 3.98636e-18 4.71524e-18 -0.000290871 -3.37376e-16 2.85225e-16 -4.04862e-32 0.001415 
6847 1 -0.0500743 0.0395872 0.0143128 0 0 0 -1.09505e-16 4.72318e-17 -0.203922 -1.02032e-17 4.40085e-18 -0.000290871 4.25168e-16 9.85732e-16 9.72159e-31 0.001415 
487 1 0.0121003 0.044013 0.0147592 0 0 0 6.45078e-17 -5.46767e-17 -0.203922 5.81596e-18 -4.9296e-18 -0.000290871 -3.63168e-16 -4.28466e-16 6.94139e-31 0.001415 
9747 1 -0.0328934 0.0446643 0.0145295 0 0 0 1.73552e-17 -1.11774e-16 -0.203922 1.61005e-18 -1.03693e-17 -0.000290871 -7.37039e-16 -1.14441e-16 -4.40379e-31 0.001415 
4638 1 0.00148191 0.0455993 0.0129413 0 0 0 2.0777e-18 -1.11875e-18 -0.203922 1.30309e-19 -7.01656e-20 -0.000290871 2.41873e-17 4.49198e-17 -2.30139e-31 0.001415 
7348 1 0.0388741 0.0496065 0.0131735 0 0 0 -3.01692e-18 -5.10188e-17 -0.203922 -2.76323e-19 -4.67287e-18 -0.000290871 1.72314e-16 -1.01895e-17 -1.87803e-32 0.001415 
8315 1 0.0261215 0.0546907 0.0147258 0 0 0 -1.09384e-16 4.52223e-17 -0.203922 -1.00452e-17 4.15295e-18 -0.000290871 2.79567e-16 6.76216e-16 4.73864e-30 0.001415 
4831 1 0.0293284 0.0560787 0.0133423 0 0 0 9.48319e-17 -5.27163e-17 -0.203922 8.71834e-18 -4.84646e-18 -0.000290871 -3.35341e-16 -6.03248e-16 2.92191e-30 0.001415 
6909 1 0.00964204 0.0590336 0.0133764 0 0 0 1.28179e-17 -7.72311e-18 -0.203922 9.93297e-19 -5.98488e-19 -0.000290871 1.50765e-16 2.50222e-16 2.74381e-31 0.001415 
6047 1 -2.16486e-05 0.0672713 0.0141385 0 0 0 -1.1056e-16 -6.64381e-18 -0.203922 -1.01655e-17 -6.10869e-19 -0.000290871 -1.45126e-17 2.41506e-16 2.47231e-31 0.001415 
7455 1 0.00864732 0.0657086 0.0142848 0 0 0 -4.55811e-18 1.08091e-16 -0.203922 -4.14313e-19 9.82501e-18 -0.000290871 6.46917e-16 2.728e-17 -8.48939e-32 0.001415 
8757 1 0.00829498 0.0765507 0.0137313 0 0 0 0 0 -0.203922 0 0 -0.000290871 0 0 0 0.001415 
3316 1 0.00670592 -0.0734672 0.0160814 0 0 0 -1.12788e-16 3.60938e-17 -0.203922 -1.03835e-17 3.32287e-18 -0.000290871 -2.02068e-16 -6.31436e-16 1.05852e-32 0.001415 
2499 1 0.0564696 -0.0568217 0.0162284 0 0 0 1.28156e-18 -2.93212e-18 -0.203922 9.46343e-20 -2.16516e-19 -0.000290871 -1.60763e-17 -7.02661e-18 -4.03538e-32 0.001415 
8902 1 0.00739974 -0.0547957 0.0148529 0 0 0 -1.31901e-17 1.11357e-16 -0.203922 -1.19395e-18 1.00799e-17 -0.000290871 6.63511e-16 7.85922e-17 1.49384e-31 0.001415 
4054 1 -0.0359786 -0.0521436 0.0165149 0 0 0 0 0 -0.203922 0 0 -0.000290871 0 0 0 0.001415 
9216 1 -0.0331383 -0.0524344 0.015819 0 0 0 3.74067e-17 -9.6826e-17 -0.203922 3.40664e-18 -8.81799e-18 -0.000290871 3.97731e-16 1.53655e-16 2.08451e-30 0.001415 
6409 1 -0.0196234 -0.0530749 0.0161015 0 0 0 -1.21183e-16 3.53297e-17 -0.203922 -1.12253e-17 3.27262e-18 -0.000290871 -2.03156e-16 -6.9684e-16 1.17064e-30 0.001415 
5038 1 0.0374074 -0.0521216 0.0159562 0 0 0 -1.00314e-16 -2.75443e-17 -0.203922 -9.34844e-18 -2.56689e-18 -0.000290871 1.15592e-16 -4.20978e-16 1.61632e-30 0.001415 
8292 1 0.0404079 -0.0427971 0.0160674 0 0 0 -4.69681e-17 1.11323e-16 -0.203922 -4.30578e-18 1.02055e-17 -0.000290871 -6.27515e-16 -2.64753e-16 -8.65268e-31 0.001415 
163 1 0.0234703 -0.0405039 0.0157922 0 0 0 -3.00236e-18 -4.00742e-17 -0.203922 -2.66886e-19 -3.56227e-18 -0.000290871 -2.64115e-16 1.97875e-17 3.93218e-31 0.001415 
8783 1 0.00873888 -0.0402008 0.0162988 0 0 0 -8.04972e-17 -3.67224e-17 -0.203922 -7.23981e-18 -3.30276e-18 -0.000290871 1.06313e-16 -2.33044e-16 1.86519e-30 0.001415 
1766 1 -0.00794199 -0.0335305 0.0163143 0 0 0 -8.53275e-17 2.67022e-17 -0.203922 -7.865e-18 2.46126e-18 -0.000290871 -1.61751e-16 -5.1688e-16 -1.25441e-31 0.001415 
7142 1 -0.0430179 -0.0310366 0.0152768 0 0 0 -7.24308e-17 7.18947e-17 -0.203922 -6.51581e-18 6.46758e-18 -0.000290871 3.86489e-16 3.89371e-16 1.42954e-30 0.001415 
6549 1 -0.00774795 -0.0294214 0.015245 0 0 0 5.25403e-17 -8.51555e-18 -0.203922 4.82764e-18 -7.82447e-19 -0.000290871 3.69821e-17 2.28177e-16 -1.30557e-31 0.001415 
1112 1 0.0563793 -0.0257718 0.0159944 0 0 0 -1.02355e-16 -5.25128e-17 -0.203922 -9.44659e-18 -4.84653e-18 -0.000290871 2.54558e-16 -4.96171e-16 -5.45658e-31 0.001415 
2603 1 -0.028804 -0.0238547 0.0161722 0 0 0 -9.58037e-17 4.17124e-18 -0.203922 -8.83952e-18 3.84868e-19 -0.000290871 -3.09071e-17 -7.09863e-16 2.39674e-31 0.001415 