ITEM: TIMESTEP
120000
ITEM: NUMBER OF ATOMS
10248
ITEM: BOX BOUNDS ff ff ff
-0.2 0.2
-0.2 0.2
-0.01 0.5
ITEM: ATOMS id type x y z ix iy iz vx vy vz fx fy fz omegax omegay omegaz radius 
168 1 0.0236553 -0.0380352 0.00143296 0 0 0 1.48949e-17 1.9881e-16 -0.223529 3.62931e-19 4.84424e-18 -0.000290845 2.05515e-15 -1.53972e-16 -2.41977e-30 0.001415 
5124 1 -0.00943529 -0.0647942 0.00249746 0 0 0 -1.07557e-17 -3.78596e-18 -0.223529 9.84273e-24 3.46461e-24 -0.000290845 2.43546e-16 -6.91897e-16 1.49156e-32 0.001415 
9891 1 -0.0536741 -0.00562861 0.00238193 0 0 0 7.1263e-18 -8.90063e-18 -0.223529 -6.52142e-24 8.14515e-24 -0.000290845 6.62952e-16 5.30793e-16 -2.8963e-31 0.001415 
8778 1 0.0127785 0.033873 0.00290624 0 0 0 -4.29737e-18 7.23231e-18 -0.223529 3.93261e-24 -6.61844e-24 -0.000290845 -4.43934e-16 -2.63781e-16 3.6863e-31 0.001415 
5123 1 -0.00890863 -0.0646088 0.00527184 0 0 0 9.81929e-18 3.45636e-18 -0.223529 -8.98583e-24 -3.16299e-24 -0.000290845 2.42096e-16 -6.87779e-16 1.77198e-32 0.001415 
167 1 0.0236183 -0.0385289 0.00421931 0 0 0 -1.35701e-17 -1.81128e-16 -0.223529 -3.40371e-19 -4.54311e-18 -0.000290845 2.17074e-15 -1.62632e-16 7.42482e-30 0.001415 
5439 1 0.0255064 -0.015295 0.00477481 0 0 0 6.69744e-19 -1.27261e-18 -0.223529 -6.12897e-25 1.1646e-24 -0.000290845 -5.23904e-18 -2.75717e-18 2.22096e-33 0.001415 
9890 1 -0.0540531 -0.00515523 0.0051462 0 0 0 -6.21428e-18 7.76154e-18 -0.223529 5.68682e-24 -7.10274e-24 -0.000290845 6.56944e-16 5.25983e-16 -2.89951e-31 0.001415 
4096 1 0.0493328 0.0413049 0.00432682 0 0 0 1.09409e-17 -3.72013e-18 -0.223529 1.26937e-19 -4.31614e-20 -0.000290845 -3.24444e-16 -9.54185e-16 1.90233e-30 0.001415 
4641 1 -0.00200478 0.0474767 0.00500401 0 0 0 -2.10641e-18 1.13421e-18 -0.223529 1.92762e-24 -1.03794e-24 -0.000290845 5.34858e-18 9.93318e-18 -2.46533e-33 0.001415 
166 1 0.0235813 -0.0390227 0.00700566 0 0 0 -1.2685e-18 -1.69314e-17 -0.223529 -2.25606e-20 -3.01129e-19 -0.000290845 1.16846e-16 -8.75409e-18 9.8445e-30 0.001415 
8779 1 0.0136066 -0.0379801 0.0058956 0 0 0 1.1488e-19 5.24078e-20 -0.223529 -1.05129e-25 -4.79594e-26 -0.000290845 -4.07814e-19 8.93947e-19 -5.00759e-34 0.001415 
6552 1 -0.00600865 -0.0297033 0.00651236 0 0 0 7.94152e-19 -1.28713e-19 -0.223529 -7.26745e-25 1.17788e-25 -0.000290845 -4.68474e-19 -2.89045e-18 -2.04094e-34 0.001415 
1407 1 0.0135434 -0.0200891 0.00720369 0 0 0 -6.80092e-19 -1.98962e-19 -0.223529 6.22366e-25 1.82074e-25 -0.000290845 -4.80056e-19 1.64093e-18 -6.54864e-34 0.001415 
4516 1 0.00201022 -0.00437069 0.00593229 0 0 0 -1.0723e-18 1.28011e-18 -0.223529 9.81285e-25 -1.17146e-24 -0.000290845 4.6945e-18 3.93241e-18 -1.24814e-32 0.001415 
5818 1 0.0744051 0.00953964 0.00544173 0 0 0 2.36861e-19 -2.27663e-19 -0.223529 -2.16756e-25 2.08339e-25 -0.000290845 -2.53182e-19 -2.63411e-19 -1.71783e-34 0.001415 
6447 1 -0.0515136 0.0117203 0.00575467 0 0 0 -1.10174e-18 1.34218e-18 -0.223529 1.00822e-24 -1.22825e-24 -0.000290845 4.42238e-18 3.63015e-18 -1.38191e-32 0.001415 
4347 1 0.0446345 0.0124385 0.00651145 0 0 0 -7.2828e-19 -2.55976e-19 -0.223529 6.66464e-25 2.34249e-25 -0.000290845 -2.68502e-19 7.63918e-19 -3.25085e-35 0.001415 
9996 1 -0.0293411 0.0177597 0.0064661 0 0 0 -1.75256e-18 -1.67421e-18 -0.223529 1.6038e-24 1.53211e-24 -0.000290845 -7.58316e-18 7.93802e-18 1.07765e-32 0.001415 
1281 1 -0.00910888 0.0220965 0.00688069 0 0 0 -7.20037e-19 -2.66723e-19 -0.223529 6.58921e-25 2.44084e-25 -0.000290845 -8.97978e-19 2.42415e-18 -9.39114e-34 0.001415 
4221 1 0.00751144 0.0235905 0.00582453 0 0 0 3.08436e-20 -2.27954e-19 -0.223529 -2.82256e-26 2.08606e-25 -0.000290845 4.14629e-19 5.61019e-20 1.08549e-34 0.001415 
3550 1 0.0375782 0.0284832 0.00657959 0 0 0 -1.07712e-18 6.30126e-18 -0.223529 9.85697e-25 -5.76642e-24 -0.000290845 3.71262e-17 6.34626e-18 -1.16599e-32 0.001415 
2814 1 0.0624335 0.0274639 0.00588246 0 0 0 1.42415e-19 7.226e-19 -0.223529 -1.30327e-25 -6.61266e-25 -0.000290845 1.17358e-18 -2.31297e-19 1.95767e-33 0.001415 
8777 1 0.0130109 0.0334818 0.00569943 0 0 0 4.09759e-18 -6.89609e-18 -0.223529 -3.74979e-24 6.31075e-24 -0.000290845 -4.43161e-16 -2.63322e-16 3.68509e-31 0.001415 
484 1 0.0153265 0.0412785 0.0069701 0 0 0 2.85378e-18 -2.41886e-18 -0.223529 -2.61155e-24 2.21355e-24 -0.000290845 -1.26411e-17 -1.4914e-17 1.11461e-32 0.001415 
4097 1 0.0483957 0.0416236 0.0069781 0 0 0 -9.48132e-18 3.22386e-18 -0.223529 -1.26938e-19 4.31619e-20 -0.000290845 -3.25965e-16 -9.58658e-16 1.90087e-30 0.001415 
7350 1 0.0388042 0.0484249 0.00721117 0 0 0 -4.44027e-21 -7.50891e-20 -0.223529 4.06339e-27 6.87156e-26 -0.000290845 2.59552e-19 -1.53482e-20 3.67255e-36 0.001415 
5122 1 -0.00838197 -0.0644234 0.00804621 0 0 0 3.72e-19 1.30943e-19 -0.223529 -1.05118e-20 -3.70011e-21 -0.000290845 9.91135e-17 -2.81575e-16 -2.79468e-30 0.001415 
9219 1 -0.0350531 -0.0474779 0.00876983 0 0 0 0 0 -0.223529 0 0 -0.000290845 0 0 0 0.001415 
8295 1 0.0424827 -0.0477148 0.00903755 0 0 0 0 0 -0.223529 0 0 -0.000290845 0 0 0 0.001415 
8780 1 0.0123897 -0.0385353 0.00838955 0 0 0 2.41082e-17 1.0998e-17 -0.223529 2.84813e-19 1.2993e-19 -0.000290845 -2.066e-15 4.52878e-15 7.19675e-31 0.001415 
8589 1 -0.0402517 -0.0187189 0.00731066 0 0 0 5.78187e-20 -7.63573e-19 -0.223529 -5.29111e-26 6.98762e-25 -0.000290845 3.63272e-18 2.75073e-19 -1.53627e-32 0.001415 
5438 1 0.0249608 -0.0142584 0.00735099 0 0 0 9.7695e-17 -1.85635e-16 -0.223529 3.38289e-18 -6.428e-18 -0.000290845 -2.09714e-15 -1.10367e-15 -1.07725e-29 0.001415 
2100 1 -0.012979 -0.0106864 0.00741831 0 0 0 2.20705e-16 4.00446e-17 -0.223529 7.62985e-18 1.38435e-18 -0.000290845 -4.99985e-16 2.75566e-15 2.7722e-30 0.001415 
9889 1 -0.0544321 -0.00468185 0.00791046 0 0 0 -9.12013e-19 1.13909e-18 -0.223529 8.34602e-25 -1.0424e-24 -0.000290845 -6.0071e-18 -4.80959e-18 -3.20199e-34 0.001415 
4517 1 0.00302288 -0.0055796 0.00828217 0 0 0 1.0723e-18 -1.28011e-18 -0.223529 -9.81285e-25 1.17146e-24 -0.000290845 4.6945e-18 3.93241e-18 -1.24814e-32 0.001415 
7477 1 0.00556963 0.00632744 0.00815107 0 0 0 0 0 -0.223529 0 0 -0.000290845 0 0 0 0.001415 
6446 1 -0.0505093 0.0104969 0.00810063 0 0 0 -2.33065e-18 2.83928e-18 -0.223529 -4.15693e-20 5.06412e-20 -0.000290845 5.92253e-17 4.86157e-17 9.52024e-31 0.001415 
5819 1 0.0733204 0.0105822 0.00783867 0 0 0 -2.36861e-19 2.27663e-19 -0.223529 2.16756e-25 -2.08339e-25 -0.000290845 -2.53182e-19 -2.63411e-19 -1.71783e-34 0.001415 
4368 1 0.0417993 0.0124877 0.00837948 0 0 0 0 0 -0.223529 0 0 -0.000290845 0 0 0 0.001415 
4346 1 0.0459771 0.0129104 0.00895762 0 0 0 -8.75078e-18 -3.07573e-18 -0.223529 -1.10661e-19 -3.88952e-20 -0.000290845 -2.60492e-16 7.41127e-16 -1.6776e-30 0.001415 
9995 1 -0.0283179 0.0187371 0.00891695 0 0 0 1.75256e-18 1.67421e-18 -0.223529 -1.6038e-24 -1.53211e-24 -0.000290845 -7.58316e-18 7.93802e-18 1.07765e-32 0.001415 
4220 1 0.00732219 0.0249892 0.00827744 0 0 0 1.37245e-18 -1.01433e-17 -0.223529 1.77569e-20 -1.31235e-19 -0.000290845 -3.94042e-16 -5.33163e-17 9.81534e-31 0.001415 
2813 1 0.0621842 0.0261988 0.00840164 0 0 0 1.2131e-18 6.15518e-18 -0.223529 1.76283e-20 8.94445e-20 -0.000290845 4.73725e-17 -9.33647e-18 4.56547e-33 0.001415 
3551 1 0.0378271 0.027027 0.00899335 0 0 0 1.07712e-18 -6.30126e-18 -0.223529 -9.85697e-25 5.76642e-24 -0.000290845 3.71262e-17 6.34626e-18 -1.16599e-32 0.001415 
8776 1 0.0132433 0.0330907 0.00849261 0 0 0 -6.24969e-19 1.0518e-18 -0.223529 -1.07906e-20 1.81601e-20 -0.000290845 1.81729e-17 1.07982e-17 6.08236e-31 0.001415 
3969 1 -0.0266131 0.0377733 0.00789792 0 0 0 -1.35479e-17 4.2384e-17 -0.223529 -1.57548e-19 4.92885e-19 -0.000290845 -4.54874e-15 -1.45398e-15 2.0578e-30 0.001415 
7875 1 -0.0151895 0.0366812 0.00829885 0 0 0 3.62569e-18 4.28863e-18 -0.223529 4.22541e-20 4.998e-20 -0.000290845 4.02254e-16 -3.40074e-16 9.31072e-32 0.001415 
4640 1 -0.000842548 0.0468509 0.0075073 0 0 0 -2.58534e-16 1.39209e-16 -0.223529 -8.85402e-18 4.7675e-18 -0.000290845 -4.04828e-16 -7.51831e-16 -3.30065e-30 0.001415 
5121 1 -0.0078553 -0.064238 0.0108206 0 0 0 -1.20919e-17 -4.25632e-18 -0.223529 -2.94499e-19 -1.03663e-19 -0.000290845 -2.1158e-16 6.01085e-16 7.51766e-29 0.001415 
6406 1 -0.013834 -0.0547628 0.00969794 0 0 0 1.35804e-17 -3.95922e-18 -0.223529 1.58749e-19 -4.62814e-20 -0.000290845 -2.7229e-16 -9.33974e-16 -4.97866e-31 0.001415 
4747 1 -0.048396 -0.0516837 0.0104867 0 0 0 -4.04926e-17 5.92048e-18 -0.223529 -4.77152e-19 6.9765e-20 -0.000290845 -1.62372e-16 -1.11053e-15 -1.41085e-30 0.001415 
8904 1 0.00698378 -0.051284 0.0100061 0 0 0 0 0 -0.223529 0 0 -0.000290845 0 0 0 0.001415 
9218 1 -0.0344149 -0.0491301 0.0109771 0 0 0 -8.29216e-18 2.1464e-17 -0.223529 -1.62555e-19 4.20768e-19 -0.000290845 -3.61209e-15 -1.39545e-15 -6.0213e-29 0.001415 
8781 1 0.0111727 -0.0390904 0.0108835 0 0 0 -2.42231e-17 -1.10504e-17 -0.223529 -2.84812e-19 -1.2993e-19 -0.000290845 -2.0656e-15 4.52789e-15 7.20176e-31 0.001415 
165 1 0.0235443 -0.0395164 0.00979201 0 0 0 3.78759e-19 5.05551e-18 -0.223529 1.08559e-20 1.44899e-19 -0.000290845 -2.98213e-16 2.23422e-17 2.07917e-29 0.001415 
6551 1 -0.00658842 -0.0296093 0.00928074 0 0 0 3.32243e-18 -5.38488e-19 -0.223529 4.80314e-20 -7.78476e-21 -0.000290845 -5.20848e-17 -3.21359e-16 6.92756e-32 0.001415 
9787 1 -0.0202299 -0.023698 0.0100959 0 0 0 -5.79471e-18 -7.20554e-18 -0.223529 -7.09735e-20 -8.82533e-20 -0.000290845 -4.04033e-16 3.24924e-16 -5.52292e-30 0.001415 
1406 1 0.0148736 -0.0197 0.00967111 0 0 0 6.80092e-19 1.98962e-19 -0.223529 -6.22366e-25 -1.82074e-25 -0.000290845 -4.80056e-19 1.64093e-18 -6.54864e-34 0.001415 
8588 1 -0.0403296 -0.0176897 0.00994573 0 0 0 4.61358e-18 -6.09285e-17 -0.223529 7.54623e-20 -9.96581e-19 -0.000290845 7.22932e-15 5.47412e-16 6.42541e-29 0.001415 
4389 1 -0.00210167 -0.0164576 0.0110802 0 0 0 6.5046e-18 -3.17092e-18 -0.223529 1.85255e-19 -9.03097e-20 -0.000290845 -8.39e-17 -1.72107e-16 -1.48353e-29 0.001415 
8820 1 0.00980992 -0.0172644 0.0102735 0 0 0 0 0 -0.223529 0 0 -0.000290845 0 0 0 0.001415 
3529 1 0.0670132 -0.0166749 0.0105735 0 0 0 0 0 -0.223529 0 0 -0.000290845 0 0 0 0.001415 
4473 1 -0.0215554 -0.0144106 0.0100502 0 0 0 0 0 -0.223529 0 0 -0.000290845 0 0 0 0.001415 
5437 1 0.0244153 -0.0132218 0.00992716 0 0 0 -8.61874e-17 1.63769e-16 -0.223529 -3.07394e-18 5.84094e-18 -0.000290845 6.89129e-16 3.62671e-16 -1.87438e-30 0.001415 
2099 1 -0.0146787 -0.0109948 0.00965988 0 0 0 -2.13378e-16 -3.87152e-17 -0.223529 -7.22977e-18 -1.31176e-18 -0.000290845 -4.23073e-16 2.33176e-15 1.92747e-30 0.001415 
4518 1 0.00403554 -0.00678852 0.0106321 0 0 0 -2.30489e-17 2.75158e-17 -0.223529 -4.11046e-19 4.90706e-19 -0.000290845 -7.32332e-15 -6.13447e-15 -1.95694e-28 0.001415 
9888 1 -0.0548111 -0.00420847 0.0106747 0 0 0 6.91124e-18 -8.63202e-18 -0.223529 1.80637e-19 -2.25613e-19 -0.000290845 -1.75504e-17 -1.40517e-17 4.11679e-30 0.001415 
3528 1 0.0516347 -0.000942708 0.00936215 0 0 0 -1.51587e-17 -6.89417e-18 -0.223529 -1.76567e-19 -8.03024e-20 -0.000290845 -5.45536e-16 1.19951e-15 -4.41951e-31 0.001415 
2457 1 0.0227749 0.00368251 0.00968513 0 0 0 0 0 -0.223529 0 0 -0.000290845 0 0 0 0.001415 
1470 1 -0.0541433 0.00552442 0.0109223 0 0 0 2.73226e-17 2.63295e-17 -0.223529 4.89671e-19 4.71874e-19 -0.000290845 -7.00817e-15 7.2725e-15 -1.1231e-29 0.001415 
7478 1 0.0063252 0.00556124 0.0107685 0 0 0 0 0 -0.223529 0 0 -0.000290845 0 0 0 0.001415 
5545 1 -0.0302182 0.00727945 0.0110626 0 0 0 0 0 -0.223529 0 0 -0.000290845 0 0 0 0.001415 
6445 1 -0.0495051 0.00927345 0.0104466 0 0 0 -2.26889e-19 2.76404e-19 -0.223529 -7.98267e-21 9.72476e-21 -0.000290845 3.5389e-17 2.90495e-17 2.78152e-30 0.001415 
4431 1 -0.0620527 0.012605 0.0104411 0 0 0 -3.70724e-17 7.9195e-18 -0.223529 -6.50592e-19 1.38981e-19 -0.000290845 -1.55074e-15 -7.25926e-15 -3.33746e-29 0.001415 
4367 1 0.0426483 0.0117219 0.0109682 0 0 0 -1.50571e-17 1.35826e-17 -0.223529 -3.91647e-19 3.53294e-19 -0.000290845 -1.43213e-15 -1.5876e-15 4.63098e-29 0.001415 
5820 1 0.0722357 0.0116248 0.0102356 0 0 0 7.62929e-18 -7.33302e-18 -0.223529 8.90416e-20 -8.55838e-20 -0.000290845 -6.07045e-16 -6.31571e-16 -4.63174e-30 0.001415 
1280 1 -0.00826091 0.0224106 0.00956232 0 0 0 7.20037e-19 2.66723e-19 -0.223529 -6.58921e-25 -2.44084e-25 -0.000290845 -8.97978e-19 2.42415e-18 -9.39114e-34 0.001415 
2812 1 0.0619348 0.0249338 0.0109208 0 0 0 3.7673e-18 1.91149e-17 -0.223529 1.12436e-19 5.70492e-19 -0.000290845 -2.25216e-15 4.43871e-16 -3.61863e-29 0.001415 
4219 1 0.00713294 0.0263879 0.0107304 0 0 0 2.67316e-18 -1.97564e-17 -0.223529 8.04461e-20 -5.94548e-19 -0.000290845 3.65617e-15 4.94702e-16 1.64966e-29 0.001415 
6216 1 -0.023401 0.0310553 0.0107998 0 0 0 -2.32853e-18 -1.08266e-17 -0.223529 -2.82652e-20 -1.31421e-19 -0.000290845 -5.26369e-16 1.13208e-16 1.5055e-30 0.001415 
3968 1 -0.0261983 0.0364757 0.0103785 0 0 0 1.35479e-17 -4.2384e-17 -0.223529 1.57548e-19 -4.92885e-19 -0.000290845 -4.54874e-15 -1.45398e-15 2.0578e-30 0.001415 
7874 1 -0.0157052 0.0360712 0.0110138 0 0 0 -3.62569e-18 -4.28863e-18 -0.223529 -4.22541e-20 -4.998e-20 -0.000290845 4.02254e-16 -3.40074e-16 9.31072e-32 0.001415 
9745 1 -0.0323504 0.0411674 0.00968476 0 0 0 0 0 -0.223529 0 0 -0.000290845 0 0 0 0.001415 
485 1 0.0142511 0.04219 0.009424 0 0 0 -2.85378e-18 2.41886e-18 -0.223529 2.61155e-24 -2.21355e-24 -0.000290845 -1.26411e-17 -1.4914e-17 1.11461e-32 0.001415 
4098 1 0.0474587 0.0419422 0.00962938 0 0 0 1.6891e-18 -5.74331e-19 -0.223529 3.70935e-20 -1.26126e-20 -0.000290845 -4.76087e-17 -1.40017e-16 -2.52539e-31 0.001415 
4639 1 0.000319678 0.0462251 0.0100106 0 0 0 2.44504e-16 -1.31655e-16 -0.223529 8.37351e-18 -4.50877e-18 -0.000290845 5.35109e-17 9.93783e-17 2.76588e-30 0.001415 
7349 1 0.0388392 0.0490157 0.0099786 0 0 0 -9.39355e-19 -1.58853e-17 -0.223529 -1.93542e-20 -3.27298e-19 -0.000290845 1.25592e-17 -7.42668e-19 -5.05446e-30 0.001415 
3318 1 0.0108764 -0.0748018 0.0120677 0 0 0 0 0 -0.223529 0 0 -0.000290845 0 0 0 0.001415 
6407 1 -0.0157638 -0.0542001 0.01169 0 0 0 -1.35804e-17 3.95922e-18 -0.223529 -1.58749e-19 4.62814e-20 -0.000290845 -2.7229e-16 -9.33974e-16 -4.97866e-31 0.001415 
4748 1 -0.0463698 -0.05198 0.0124401 0 0 0 1.22224e-17 -1.78705e-18 -0.223529 -1.96738e-19 2.87654e-20 -0.000290845 -2.00218e-15 -1.36937e-14 5.20451e-29 0.001415 
8903 1 0.00719176 -0.0530399 0.0122158 0 0 0 -3.13495e-18 2.64667e-17 -0.223529 -8.12182e-20 6.85681e-19 -0.000290845 -7.00745e-15 -8.30024e-16 6.30765e-29 0.001415 
8421 1 -0.0125515 -0.050364 0.0118932 0 0 0 0 0 -0.223529 0 0 -0.000290845 0 0 0 0.001415 
5040 1 0.0412118 -0.051077 0.0114703 0 0 0 0 0 -0.223529 0 0 -0.000290845 0 0 0 0.001415 
8294 1 0.0417911 -0.0460756 0.0112383 0 0 0 0 0 -0.223529 0 0 -0.000290845 0 0 0 0.001415 
164 1 0.0235073 -0.0400101 0.0125784 0 0 0 2.54832e-17 3.40138e-16 -0.223529 2.9196e-19 3.89695e-18 -0.000290845 -4.54064e-15 3.40185e-16 2.69817e-29 0.001415 
7141 1 -0.0440609 -0.0300013 0.0124308 0 0 0 0 0 -0.223529 0 0 -0.000290845 0 0 0 0.001415 
6550 1 -0.00716818 -0.0295154 0.0120491 0 0 0 -4.11658e-18 6.67201e-19 -0.223529 -4.80307e-20 7.78465e-21 -0.000290845 -5.16163e-17 -3.18469e-16 6.94797e-32 0.001415 
9788 1 -0.0191042 -0.0222982 0.0122828 0 0 0 -6.27233e-18 -7.79945e-18 -0.223529 -2.71873e-19 -3.38066e-19 -0.000290845 4.97746e-15 -4.00288e-15 2.05347e-28 0.001415 
1405 1 0.0162037 -0.0193109 0.0121385 0 0 0 -3.70836e-17 -1.08489e-17 -0.223529 -8.28922e-19 -2.42503e-19 -0.000290845 1.74573e-15 -5.96725e-15 -1.03969e-28 0.001415 
8819 1 0.00974619 -0.0192248 0.0123136 0 0 0 1.52983e-18 4.70526e-17 -0.223529 3.23011e-20 9.93479e-19 -0.000290845 -7.23648e-15 2.3528e-16 -5.26387e-29 0.001415 
8587 1 -0.0404076 -0.0166605 0.0125808 0 0 0 4.31583e-17 -5.69964e-16 -0.223529 4.59117e-19 -6.06326e-18 -0.000290845 2.95397e-17 2.23678e-18 -2.85696e-29 0.001415 
4472 1 -0.0211077 -0.0159411 0.0123881 0 0 0 -1.69577e-17 5.79662e-17 -0.223529 -3.23775e-19 1.10675e-18 -0.000290845 -1.0972e-14 -3.20978e-15 -9.68067e-29 0.001415 
5436 1 0.0238697 -0.0121851 0.0125033 0 0 0 7.58889e-19 -1.442e-18 -0.223529 7.93636e-21 -1.50803e-20 -0.000290845 5.32328e-15 2.80151e-15 1.48188e-29 0.001415 
2098 1 -0.0163785 -0.0113032 0.0119015 0 0 0 -7.32669e-18 -1.32935e-18 -0.223529 -4.00076e-19 -7.25894e-20 -0.000290845 7.69115e-17 -4.23897e-16 -8.44735e-31 0.001415 
4519 1 0.0050482 -0.00799743 0.0129819 0 0 0 -3.73322e-16 4.45672e-16 -0.223529 -3.63093e-18 4.3346e-18 -0.000290845 1.11121e-15 9.30817e-16 4.81057e-28 0.001415 
3527 1 0.053278 -0.000195356 0.0115416 0 0 0 1.51587e-17 6.89417e-18 -0.223529 1.76567e-19 8.03024e-20 -0.000290845 -5.45536e-16 1.19951e-15 -4.41951e-31 0.001415 
4852 1 -0.0576017 0.00160357 0.0123026 0 0 0 1.39897e-17 2.29542e-17 -0.223529 3.56098e-19 5.84282e-19 -0.000290845 -4.10952e-15 2.5046e-15 1.01975e-29 0.001415 
2456 1 0.0231999 0.00341526 0.0124703 0 0 0 -2.41093e-16 1.51617e-16 -0.223529 -2.02924e-18 1.27614e-18 -0.000290845 1.12512e-15 1.7891e-15 -3.33146e-29 0.001415 
6444 1 -0.0485008 0.00805 0.0127925 0 0 0 -1.73824e-17 2.11758e-17 -0.223529 -4.61323e-19 5.61999e-19 -0.000290845 -6.00811e-15 -4.93182e-15 -1.83902e-28 0.001415 
7897 1 0.0202104 0.0106666 0.0126454 0 0 0 7.73773e-18 3.68827e-17 -0.223529 1.76248e-19 8.40106e-19 -0.000290845 -8.10683e-15 1.70075e-15 -1.55413e-29 0.001415 
4430 1 -0.0607358 0.0123237 0.0129302 0 0 0 -5.74341e-16 1.22692e-16 -0.223529 -4.80724e-18 1.02693e-18 -0.000290845 7.76823e-16 3.63643e-15 -2.51234e-29 0.001415 
4345 1 0.0473197 0.0133822 0.0114038 0 0 0 9.47906e-18 3.3317e-18 -0.223529 1.10661e-19 3.8895e-20 -0.000290845 -2.60223e-16 7.40363e-16 -1.67757e-30 0.001415 
5821 1 0.071151 0.0126674 0.0126326 0 0 0 -7.62929e-18 7.33302e-18 -0.223529 -8.90416e-20 8.55838e-20 -0.000290845 -6.07045e-16 -6.31571e-16 -4.63174e-30 0.001415 
9994 1 -0.0272948 0.0197145 0.0113678 0 0 0 -2.69472e-17 -2.57425e-17 -0.223529 -5.97112e-19 -5.70419e-19 -0.000290845 4.58467e-15 -4.79921e-15 4.45131e-29 0.001415 
1279 1 -0.00741294 0.0227247 0.012244 0 0 0 -3.10691e-17 -1.15089e-17 -0.223529 -6.53381e-19 -2.42032e-19 -0.000290845 5.10975e-16 -1.37941e-15 -3.69561e-29 0.001415 
3552 1 0.038076 0.0255707 0.0114071 0 0 0 -2.2838e-18 1.33604e-17 -0.223529 -6.69582e-20 3.91712e-19 -0.000290845 -3.30963e-15 -5.65741e-16 4.17406e-29 0.001415 
9955 1 0.0480973 0.0295036 0.0117025 0 0 0 0 0 -0.223529 0 0 -0.000290845 0 0 0 0.001415 
6215 1 -0.0229502 0.0331509 0.0126475 0 0 0 -2.18698e-18 -1.01685e-17 -0.223529 -9.27089e-20 -4.31056e-19 -0.000290845 8.99784e-15 -1.9352e-15 -7.17073e-29 0.001415 
8775 1 0.0134757 0.0326995 0.0112858 0 0 0 -2.0161e-18 3.39302e-18 -0.223529 -6.99247e-20 1.17681e-19 -0.000290845 9.54664e-17 5.67252e-17 -3.12029e-30 0.001415 
3967 1 -0.0257836 0.0351781 0.012859 0 0 0 -2.05965e-16 6.44356e-16 -0.223529 -1.74049e-18 5.44506e-18 -0.000290845 3.51815e-15 1.12456e-15 -1.16555e-28 0.001415 
4099 1 0.0465216 0.0422608 0.0122807 0 0 0 -3.14864e-18 1.07061e-18 -0.223529 -3.70922e-20 1.26122e-20 -0.000290845 -4.60881e-17 -1.35544e-16 -2.51077e-31 0.001415 
9746 1 -0.0326219 0.0429159 0.0118934 0 0 0 4.84856e-18 -3.12265e-17 -0.223529 1.19623e-19 -7.70415e-19 -0.000290845 7.70369e-15 1.19616e-15 -5.40681e-29 0.001415 
486 1 0.0131757 0.0431015 0.0118779 0 0 0 3.85364e-17 -3.26634e-17 -0.223529 7.72763e-19 -6.54993e-19 -0.000290845 7.32658e-15 8.64393e-15 1.86154e-29 0.001415 
4638 1 0.00148191 0.0455993 0.0125139 0 0 0 4.30498e-18 -2.31804e-18 -0.223529 1.34237e-19 -7.2281e-20 -0.000290845 -8.8684e-16 -1.647e-15 3.60833e-29 0.001415 
7348 1 0.0388741 0.0496065 0.012746 0 0 0 -2.40069e-17 -4.05979e-16 -0.223529 -2.79051e-19 -4.71901e-18 -0.000290845 5.67825e-15 -3.35774e-16 -6.5801e-30 0.001415 
8316 1 0.0241447 0.055508 0.0124455 0 0 0 0 0 -0.223529 0 0 -0.000290845 0 0 0 0.001415 
4831 1 0.0293284 0.0560787 0.0129148 0 0 0 6.29527e-16 -3.49949e-16 -0.223529 5.9642e-18 -3.31545e-18 -0.000290845 -8.17002e-15 -1.46971e-14 -6.03058e-28 0.001415 
6909 1 0.00964204 0.0590336 0.0129489 0 0 0 9.68308e-17 -5.83432e-17 -0.223529 1.59948e-18 -9.63731e-19 -0.000290845 1.14915e-14 1.90722e-14 -5.33308e-28 0.001415 
6048 1 -0.0014895 0.0671831 0.011293 0 0 0 -2.92068e-17 -1.7551e-18 -0.223529 -7.35214e-19 -4.41806e-20 -0.000290845 2.63492e-16 -4.38479e-15 -2.14108e-29 0.001415 
3317 1 0.00879117 -0.0741345 0.0138608 0 0 0 1.08264e-15 -3.46459e-16 -0.223529 7.51733e-18 -2.40565e-18 -0.000290845 -5.70417e-15 -1.78248e-14 -9.37456e-28 0.001415 
4537 1 0.0348065 -0.0668743 0.0138388 0 0 0 3.45001e-16 -6.71867e-16 -0.223529 2.01697e-18 -3.92791e-18 -0.000290845 6.52523e-15 3.35068e-15 2.75987e-29 0.001415 
5120 1 -0.00732864 -0.0640527 0.013595 0 0 0 -4.23136e-16 -1.48943e-16 -0.223529 -2.15096e-18 -7.5713e-19 -0.000290845 1.72041e-15 -4.88756e-15 8.57776e-29 0.001415 
8902 1 0.00739974 -0.0547957 0.0144255 0 0 0 -1.28561e-16 1.08537e-15 -0.223529 -7.9011e-19 6.67047e-18 -0.000290845 7.92884e-15 9.39162e-16 -1.9236e-29 0.001415 
4749 1 -0.0443437 -0.0522762 0.0143935 0 0 0 -8.37457e-16 1.22446e-16 -0.223529 -4.25313e-18 6.21857e-19 -0.000290845 2.65774e-15 1.81774e-14 -2.1154e-29 0.001415 
6408 1 -0.0176936 -0.0536375 0.013682 0 0 0 1.16206e-15 -3.38786e-16 -0.223529 7.93023e-18 -2.31197e-18 -0.000290845 -3.18045e-15 -1.09092e-14 -1.70063e-28 0.001415 
9217 1 -0.0337766 -0.0507822 0.0131843 0 0 0 -2.44353e-16 6.32502e-16 -0.223529 -1.91307e-18 4.95193e-18 -0.000290845 5.75809e-16 2.22451e-16 6.44115e-28 0.001415 
5039 1 0.0393096 -0.0515993 0.0134995 0 0 0 9.49052e-16 2.60591e-16 -0.223529 1.29976e-17 3.56888e-18 -0.000290845 2.23393e-15 -8.13581e-15 4.33584e-28 0.001415 
8420 1 -0.0130316 -0.0490822 0.0143702 0 0 0 3.57692e-16 -9.5511e-16 -0.223529 2.30785e-18 -6.16242e-18 -0.000290845 -3.58923e-15 -1.34418e-15 5.88165e-28 0.001415 
8293 1 0.0410995 -0.0444363 0.0134391 0 0 0 4.64827e-16 -1.10173e-15 -0.223529 3.09447e-18 -7.33447e-18 -0.000290845 -2.32119e-14 -9.79327e-15 7.38229e-28 0.001415 
8782 1 0.00995582 -0.0396456 0.0133774 0 0 0 8.20782e-16 3.74436e-16 -0.223529 4.90932e-18 2.2396e-18 -0.000290845 7.62152e-15 -1.67067e-14 -3.98969e-28 0.001415 
1765 1 -0.00582286 -0.0341936 0.0141323 0 0 0 9.28023e-16 -2.90414e-16 -0.223529 6.1131e-18 -1.91302e-18 -0.000290845 -7.60797e-15 -2.43114e-14 2.59057e-28 0.001415 
7142 1 -0.0430179 -0.0310366 0.0148494 0 0 0 -7.19113e-16 7.1379e-16 -0.223529 -4.50562e-18 4.47227e-18 -0.000290845 1.12775e-14 1.13616e-14 -5.41113e-30 0.001415 
6549 1 -0.00774795 -0.0294214 0.0148175 0 0 0 4.97316e-16 -8.06033e-17 -0.223529 2.84114e-18 -4.60481e-19 -0.000290845 5.64e-16 3.47984e-15 3.26936e-29 0.001415 
2898 1 -0.0015393 -0.0260351 0.0144045 0 0 0 6.40504e-16 -1.26442e-16 -0.223529 3.70874e-18 -7.32142e-19 -0.000290845 3.473e-18 1.75928e-17 -1.65797e-29 0.001415 
1113 1 0.057839 -0.0250229 0.0132611 0 0 0 9.0866e-16 4.66184e-16 -0.223529 1.49614e-17 7.67585e-18 -0.000290845 5.23255e-15 -1.0199e-14 1.3177e-28 0.001415 
2604 1 -0.0264828 -0.0239558 0.014129 0 0 0 9.43859e-16 -4.10951e-17 -0.223529 6.36207e-18 -2.77001e-19 -0.000290845 -1.19441e-15 -2.74328e-14 -2.89195e-30 0.001415 
7959 1 -0.0480224 -0.0227988 0.014811 0 0 0 -9.79696e-16 6.11062e-16 -0.223529 -6.83415e-18 4.26264e-18 -0.000290845 9.68693e-15 1.55307e-14 9.00976e-28 0.001415 
8818 1 0.00968245 -0.0211851 0.0143537 0 0 0 3.33546e-17 1.02588e-15 -0.223529 1.9059e-19 5.86196e-18 -0.000290845 4.22352e-15 -1.3732e-16 -3.64239e-29 0.001415 
9789 1 -0.0179785 -0.0208985 0.0144696 0 0 0 -7.61232e-16 -9.46568e-16 -0.223529 -4.87155e-18 -6.05762e-18 -0.000290845 -1.51457e-14 1.21802e-14 1.28727e-28 0.001415 
4471 1 -0.0206599 -0.0174716 0.0147261 0 0 0 -2.51933e-16 8.6118e-16 -0.223529 -1.26654e-18 4.32938e-18 -0.000290845 7.55075e-16 2.20893e-16 -7.82742e-30 0.001415 
1404 1 0.0175339 -0.0189217 0.0146059 0 0 0 -9.13909e-16 -2.67366e-16 -0.223529 -5.16399e-18 -1.51073e-18 -0.000290845 -1.52421e-15 5.21004e-15 2.08317e-28 0.001415 
3530 1 0.0663652 -0.0174708 0.0132108 0 0 0 5.99892e-16 7.36787e-16 -0.223529 3.76524e-18 4.62446e-18 -0.000290845 1.66423e-15 -1.35502e-15 -7.31064e-28 0.001415 
4388 1 -0.00265555 -0.0161876 0.0138423 0 0 0 4.35095e-16 -2.12104e-16 -0.223529 2.26814e-18 -1.10569e-18 -0.000290845 1.95634e-15 4.01311e-15 3.37629e-29 0.001415 
2097 1 -0.0180782 -0.0116116 0.014143 0 0 0 1.09465e-15 1.98612e-16 -0.223529 6.96921e-18 1.26449e-18 -0.000290845 3.7761e-15 -2.08119e-14 -3.60923e-28 0.001415 
9887 1 -0.0551901 -0.00373509 0.013439 0 0 0 3.03491e-16 -3.79056e-16 -0.223529 1.54914e-18 -1.93485e-18 -0.000290845 4.1293e-15 3.30613e-15 -6.90005e-29 0.001415 
4853 1 -0.0586257 -7.65915e-05 0.0143366 0 0 0 5.62693e-16 9.23261e-16 -0.223529 3.44761e-18 5.6568e-18 -0.000290845 9.56312e-16 -5.82837e-16 -5.34403e-29 0.001415 
9743 1 -0.0492029 -0.00049722 0.0148418 0 0 0 4.87181e-16 5.5494e-16 -0.223529 2.72017e-18 3.0985e-18 -0.000290845 1.48175e-14 -1.30083e-14 5.26897e-28 0.001415 
9744 1 -0.0476714 0.00124731 0.0132232 0 0 0 7.80953e-18 8.89571e-18 -0.223529 2.23634e-19 2.54737e-19 -0.000290845 -2.9485e-15 2.58849e-15 -3.70055e-29 0.001415 
3403 1 0.0399954 0.00144601 0.0133582 0 0 0 -8.40644e-16 3.97811e-17 -0.223529 -1.14046e-17 5.3969e-19 -0.000290845 4.95716e-16 1.04753e-14 -4.46506e-29 0.001415 
3526 1 0.0549212 0.000551996 0.0137211 0 0 0 -1.09308e-15 -4.97132e-16 -0.223529 -7.33821e-18 -3.33742e-18 -0.000290845 -1.02035e-14 2.24351e-14 -1.16893e-27 0.001415 
3843 1 -0.0432547 0.00201405 0.0139436 0 0 0 8.8984e-16 6.06304e-16 -0.223529 5.63855e-18 3.8419e-18 -0.000290845 5.8689e-15 -8.61347e-15 1.16513e-27 0.001415 
6238 1 0.0476834 0.00358837 0.0134791 0 0 0 1.09909e-15 -7.07175e-16 -0.223529 7.64248e-18 -4.9173e-18 -0.000290845 -7.73661e-15 -1.20243e-14 4.13118e-28 0.001415 
1469 1 -0.0554428 0.00427207 0.0131021 0 0 0 4.98034e-16 4.79932e-16 -0.223529 4.37194e-18 4.21304e-18 -0.000290845 6.70743e-15 -6.96041e-15 -2.75177e-28 0.001415 
7479 1 0.00708078 0.00479504 0.0133859 0 0 0 -5.73139e-16 5.81199e-16 -0.223529 -3.20045e-18 3.24546e-18 -0.000290845 -6.75667e-16 -6.66298e-16 1.60916e-28 0.001415 
5546 1 -0.0286421 0.00814112 0.0132495 0 0 0 -8.49443e-16 -4.64403e-16 -0.223529 -8.41563e-18 -4.60094e-18 -0.000290845 -1.03457e-14 1.89234e-14 -7.44428e-28 0.001415 
7898 1 0.0197791 0.00861083 0.0145419 0 0 0 2.15122e-16 1.0254e-15 -0.223529 1.30318e-18 6.21175e-18 -0.000290845 1.36913e-14 -2.87234e-15 -1.65264e-28 0.001415 
4366 1 0.0434972 0.010956 0.013557 0 0 0 -6.40259e-16 5.7756e-16 -0.223529 -3.38197e-18 3.05079e-18 -0.000290845 1.02905e-15 1.14076e-15 -2.86766e-29 0.001415 
1176 1 0.023371 0.01534 0.0145434 0 0 0 1.33707e-17 1.13296e-15 -0.223529 8.83986e-20 7.49039e-18 -0.000290845 8.52454e-15 -1.00603e-16 3.68129e-30 0.001415 
4344 1 0.0486622 0.0138541 0.01385 0 0 0 -9.98966e-16 -3.51117e-16 -0.223529 -6.45465e-18 -2.26868e-18 -0.000290845 -2.32287e-15 6.60881e-15 3.94109e-28 0.001415 
5629 1 -0.00809486 0.0186934 0.0137233 0 0 0 9.01216e-16 1.57655e-17 -0.223529 1.41989e-17 2.4839e-19 -0.000290845 5.20732e-16 -2.9767e-14 8.39309e-29 0.001415 
9993 1 -0.0262716 0.020692 0.0138187 0 0 0 -6.365e-16 -6.08047e-16 -0.223529 -3.40936e-18 -3.25695e-18 -0.000290845 -9.23187e-15 9.66388e-15 5.26905e-28 0.001415 
3553 1 0.038325 0.0241144 0.0138209 0 0 0 -1.50381e-16 8.79741e-16 -0.223529 -8.25915e-19 4.83168e-18 -0.000290845 1.02987e-14 1.76043e-15 1.58194e-28 0.001415 
2811 1 0.0616855 0.0236687 0.01344 0 0 0 1.90307e-16 9.65604e-16 -0.223529 1.13153e-18 5.74131e-18 -0.000290845 4.31984e-16 -8.51382e-17 -1.4493e-28 0.001415 
4218 1 0.00694369 0.0277865 0.0131833 0 0 0 1.25621e-16 -9.28422e-16 -0.223529 7.11402e-19 -5.25772e-18 -0.000290845 -1.0609e-14 -1.43546e-15 1.03781e-28 0.001415 
9956 1 0.047731 0.0274693 0.0136355 0 0 0 1.75883e-16 9.76819e-16 -0.223529 2.89918e-18 1.61014e-17 -0.000290845 8.79541e-15 -1.58368e-15 -1.09086e-29 0.001415 
6007 1 0.0347873 0.0296881 0.0134053 0 0 0 2.90117e-16 3.25069e-16 -0.223529 1.51615e-18 1.69881e-18 -0.000290845 -2.51753e-15 2.24684e-15 5.19093e-29 0.001415 
8774 1 0.0137081 0.0323084 0.014079 0 0 0 -1.89628e-16 3.19137e-16 -0.223529 -1.00114e-18 1.68488e-18 -0.000290845 -3.69902e-15 -2.19792e-15 1.55314e-29 0.001415 
6214 1 -0.0224995 0.0352466 0.0144952 0 0 0 -2.1179e-16 -9.84732e-16 -0.223529 -1.29546e-18 -6.02331e-18 -0.000290845 -1.73172e-14 3.72448e-15 4.94536e-28 0.001415 
7873 1 -0.0162209 0.0354611 0.0137287 0 0 0 4.1694e-16 4.93175e-16 -0.223529 2.31714e-18 2.74082e-18 -0.000290845 -6.36215e-15 5.37869e-15 1.7877e-28 0.001415 
6847 1 -0.0500743 0.0395872 0.0138853 0 0 0 -9.51194e-16 4.10271e-16 -0.223529 -1.48357e-17 6.39896e-18 -0.000290845 1.22546e-14 2.84117e-14 -1.35378e-27 0.001415 
487 1 0.0121003 0.044013 0.0143318 0 0 0 6.56549e-16 -5.5649e-16 -0.223529 3.45986e-18 -2.93258e-18 -0.000290845 -4.52604e-15 -5.33984e-15 -1.1958e-29 0.001415 
9747 1 -0.0328934 0.0446643 0.014102 0 0 0 1.68358e-16 -1.08429e-15 -0.223529 1.00267e-18 -6.45756e-18 -0.000290845 -1.03348e-14 -1.6047e-15 -3.2705e-29 0.001415 
8988 1 0.0105277 0.0515901 0.0145893 0 0 0 3.80209e-16 -5.37894e-16 -0.223529 2.00585e-18 -2.83775e-18 -0.000290845 -1.7177e-14 -1.21415e-14 5.10261e-29 0.001415 
8315 1 0.0261215 0.0546907 0.0142983 0 0 0 -1.05606e-15 4.36605e-16 -0.223529 -7.25726e-18 3.00035e-18 -0.000290845 3.76227e-15 9.10018e-15 7.00412e-28 0.001415 
6908 1 0.00786074 0.0601069 0.0148683 0 0 0 8.28993e-16 -4.9949e-16 -0.223529 4.5616e-18 -2.74848e-18 -0.000290845 -1.63779e-15 -2.7182e-15 6.16618e-28 0.001415 
6047 1 -2.16486e-05 0.0672713 0.013711 0 0 0 -1.06555e-15 -6.40312e-17 -0.223529 -6.34262e-18 -3.81142e-19 -0.000290845 -3.63018e-16 6.04101e-15 4.49071e-29 0.001415 
7455 1 0.00864732 0.0657086 0.0138573 0 0 0 -4.54073e-17 1.07679e-15 -0.223529 -2.89517e-19 6.86561e-18 -0.000290845 2.8266e-15 1.19196e-16 -1.42264e-29 0.001415 
8757 1 0.00829498 0.0765507 0.0133038 0 0 0 0 0 -0.223529 0 0 -0.000290845 0 0 0 0.001415 
3316 1 0.00670592 -0.0734672 0.015654 0 0 0 -1.08264e-15 3.46459e-16 -0.223529 -7.51733e-18 2.40565e-18 -0.000290845 -5.70417e-15 -1.78248e-14 -9.37456e-28 0.001415 