ITEM: TIMESTEP
175000
ITEM: NUMBER OF ATOMS
10248
ITEM: BOX BOUNDS ff ff ff
-0.2 0.2
-0.2 0.2
-0.01 0.5
ITEM: ATOMS id type x y z ix iy iz vx vy vz fx fy fz omegax omegay omegaz radius 
168 1 0.02368 -0.0377058 0.00141963 0 0 0 0.0326155 0.435337 0.00875018 -4.32918e-08 -5.77839e-07 -0.000291061 -307.747 23.0565 2.92779e-12 0.001415 
5124 1 -0.00943529 -0.0647942 0.00224565 0 0 0 -1.07553e-17 -3.78583e-18 -0.234312 1.00667e-23 3.54345e-24 -0.00029083 2.43531e-16 -6.91856e-16 1.49147e-32 0.001415 
9891 1 -0.0536741 -0.00562861 0.00213012 0 0 0 7.12605e-18 -8.90032e-18 -0.234312 -6.66982e-24 8.3305e-24 -0.00029083 6.62912e-16 5.30761e-16 -2.89613e-31 0.001415 
8778 1 0.0127785 0.033873 0.00265443 0 0 0 -4.29722e-18 7.23207e-18 -0.234312 4.02211e-24 -6.76905e-24 -0.00029083 -4.43907e-16 -2.63765e-16 3.68608e-31 0.001415 
5123 1 -0.00890863 -0.0646088 0.00502002 0 0 0 9.81895e-18 3.45624e-18 -0.234312 -9.19032e-24 -3.23496e-24 -0.00029083 2.42082e-16 -6.87738e-16 1.77188e-32 0.001415 
167 1 0.0236351 -0.0383038 0.00420042 0 0 0 0.0225724 0.301286 0.0159556 -2.41066e-08 -3.21764e-07 -0.000291067 400.677 -30.0188 1.6188e-11 0.001415 
5439 1 0.0255064 -0.015295 0.004523 0 0 0 6.69721e-19 -1.27257e-18 -0.234312 -6.26844e-25 1.1911e-24 -0.00029083 -5.23873e-18 -2.75701e-18 2.22083e-33 0.001415 
9890 1 -0.0540531 -0.00515523 0.00489438 0 0 0 -6.21407e-18 7.76127e-18 -0.234312 5.81623e-24 -7.26438e-24 -0.00029083 6.56905e-16 5.25952e-16 -2.89933e-31 0.001415 
4096 1 0.0493328 0.0413049 0.00407501 0 0 0 1.55041e-17 -5.27172e-18 -0.234312 1.19381e-19 -4.05923e-20 -0.00029083 -7.31372e-16 -2.15096e-15 4.65629e-30 0.001415 
4641 1 -0.00200478 0.0474767 0.0047522 0 0 0 -2.10634e-18 1.13417e-18 -0.234312 1.97149e-24 -1.06156e-24 -0.00029083 5.34826e-18 9.93259e-18 -2.46518e-33 0.001415 
166 1 0.0235725 -0.0391404 0.00692378 0 0 0 -0.0114053 -0.152233 -0.0598781 9.12361e-09 1.21778e-07 -0.000291002 -76.3165 5.71765 -1.31805e-11 0.001415 
8779 1 0.0136066 -0.0379801 0.00564379 0 0 0 2.27093e-19 1.03599e-19 -0.234312 -2.12554e-25 -9.69661e-26 -0.00029083 1.55091e-18 -3.39967e-18 2.49958e-32 0.001415 
6552 1 -0.00600865 -0.0297033 0.00626055 0 0 0 9.24457e-19 -1.49833e-19 -0.234312 -8.65272e-25 1.4024e-25 -0.00029083 -1.49627e-19 -9.23188e-19 -2.1765e-33 0.001415 
1407 1 0.0135434 -0.0200891 0.00695188 0 0 0 -8.62019e-19 -2.52185e-19 -0.234312 8.0683e-25 2.3604e-25 -0.00029083 -5.83727e-19 1.99529e-18 9.84953e-36 0.001415 
4516 1 0.00201022 -0.00437069 0.00568047 0 0 0 -1.24698e-18 1.48864e-18 -0.234312 1.16714e-24 -1.39333e-24 -0.00029083 5.59521e-18 4.6869e-18 -2.89603e-32 0.001415 
5818 1 0.0744051 0.00953964 0.00518992 0 0 0 2.36853e-19 -2.27655e-19 -0.234312 -2.21689e-25 2.1308e-25 -0.00029083 -2.53167e-19 -2.63396e-19 -1.71772e-34 0.001415 
6447 1 -0.0515136 0.0117203 0.00550286 0 0 0 -1.2793e-18 1.55848e-18 -0.234312 1.19739e-24 -1.45871e-24 -0.00029083 3.38248e-18 2.77654e-18 -3.23432e-32 0.001415 
4347 1 0.0446345 0.0124385 0.00625963 0 0 0 -9.14476e-19 -3.2142e-19 -0.234312 8.55929e-25 3.00842e-25 -0.00029083 8.33361e-19 -2.371e-18 -1.24877e-32 0.001415 
9996 1 -0.0293411 0.0177597 0.00621429 0 0 0 -1.98945e-18 -1.90052e-18 -0.234312 1.86209e-24 1.77884e-24 -0.00029083 -9.1819e-18 9.61157e-18 1.05876e-32 0.001415 
1281 1 -0.00910888 0.0220965 0.00662887 0 0 0 -8.68977e-19 -3.21895e-19 -0.234312 8.13344e-25 3.01287e-25 -0.00029083 -1.07239e-18 2.89499e-18 -1.24274e-33 0.001415 
4221 1 0.00751144 0.0235905 0.00557272 0 0 0 5.01587e-20 -3.70705e-19 -0.234312 -4.69474e-26 3.46972e-25 -0.00029083 3.31776e-18 4.48914e-19 -1.1565e-32 0.001415 
3550 1 0.0375782 0.0284832 0.00632778 0 0 0 -1.21011e-18 7.07925e-18 -0.234312 1.13264e-24 -6.62602e-24 -0.00029083 5.63126e-17 9.62593e-18 -2.13286e-32 0.001415 
2814 1 0.0624335 0.0274639 0.00563064 0 0 0 1.78698e-19 9.06697e-19 -0.234312 -1.67257e-25 -8.48649e-25 -0.00029083 -1.67115e-18 3.2936e-19 1.12e-32 0.001415 
8777 1 0.0130109 0.0334818 0.00544761 0 0 0 4.05376e-18 -6.82233e-18 -0.234312 -3.79423e-24 6.38555e-24 -0.00029083 -4.42205e-16 -2.62754e-16 3.68196e-31 0.001415 
484 1 0.0153265 0.0412785 0.00671829 0 0 0 3.19519e-18 -2.70824e-18 -0.234312 -2.99063e-24 2.53485e-24 -0.00029083 -1.57632e-17 -1.85974e-17 1.32794e-32 0.001415 
4097 1 0.0483957 0.0416236 0.00672629 0 0 0 -1.38222e-17 4.69984e-18 -0.234312 -1.19383e-19 4.05928e-20 -0.00029083 -7.29997e-16 -2.14691e-15 4.63617e-30 0.001415 
7350 1 0.0388042 0.0484249 0.00695936 0 0 0 -8.37059e-21 -1.41554e-19 -0.234312 7.83469e-27 1.32492e-25 -0.00029083 -2.91748e-18 1.72521e-19 1.45396e-33 0.001415 
5122 1 -0.00838197 -0.0644234 0.0077944 0 0 0 -1.89298e-17 -6.66323e-18 -0.234312 -9.40234e-18 -3.30959e-18 -0.00029083 6.99514e-17 -1.98727e-16 -1.08475e-29 0.001415 
9219 1 -0.0350531 -0.0474779 0.00851802 0 0 0 0 0 -0.234312 0 0 -0.00029083 0 0 0 0.001415 
8295 1 0.0424827 -0.0477148 0.00878573 0 0 0 0 0 -0.234312 0 0 -0.00029083 0 0 0 0.001415 
8780 1 0.0123897 -0.0385353 0.00813773 0 0 0 3.44687e-17 1.57244e-17 -0.234312 2.81755e-19 1.28535e-19 -0.00029083 -2.85423e-15 6.25662e-15 -9.04575e-30 0.001415 
8589 1 -0.0402517 -0.0187189 0.00705885 0 0 0 7.32398e-20 -9.6723e-19 -0.234312 -6.85508e-26 9.05306e-25 -0.00029083 -4.51288e-18 -3.4172e-19 -1.37897e-31 0.001415 
5438 1 0.0249608 -0.0142584 0.00709917 0 0 0 2.50775e-16 -4.7651e-16 -0.234312 1.80154e-17 -3.4232e-17 -0.00029083 -1.00949e-14 -5.31269e-15 -6.72972e-29 0.001415 
2100 1 -0.012979 -0.0106864 0.00716649 0 0 0 5.75179e-16 1.0436e-16 -0.234312 4.39692e-17 7.97773e-18 -0.00029083 -7.75185e-16 4.27242e-15 1.51856e-28 0.001415 
9889 1 -0.0544321 -0.00468185 0.00765865 0 0 0 3.12279e-17 -3.90031e-17 -0.234312 9.78975e-18 -1.22272e-17 -0.00029083 -8.98174e-16 -7.19124e-16 -2.50574e-31 0.001415 
4517 1 0.00302288 -0.0055796 0.00803036 0 0 0 1.24698e-18 -1.48864e-18 -0.234312 -1.16714e-24 1.39333e-24 -0.00029083 5.59521e-18 4.6869e-18 -2.89603e-32 0.001415 
7477 1 0.00556963 0.00632744 0.00789926 0 0 0 0 0 -0.234312 0 0 -0.00029083 0 0 0 0.001415 
6446 1 -0.0505093 0.0104969 0.00784881 0 0 0 -3.68904e-18 4.49411e-18 -0.234312 -4.14749e-20 5.05261e-20 -0.00029083 1.44826e-16 1.18882e-16 2.27289e-30 0.001415 
5819 1 0.0733204 0.0105822 0.00758686 0 0 0 2.89229e-17 -2.77997e-17 -0.234312 1.43561e-17 -1.37986e-17 -0.00029083 6.966e-17 7.24744e-17 2.12116e-30 0.001415 
4368 1 0.0417993 0.0124877 0.00812766 0 0 0 0 0 -0.234312 0 0 -0.00029083 0 0 0 0.001415 
4346 1 0.0459771 0.0129104 0.0087058 0 0 0 -1.27329e-17 -4.47537e-18 -0.234312 -1.1588e-19 -4.07296e-20 -0.00029083 -4.92807e-16 1.40209e-15 -1.54637e-30 0.001415 
9995 1 -0.0283179 0.0187371 0.00866514 0 0 0 1.98945e-18 1.90052e-18 -0.234312 -1.86209e-24 -1.77884e-24 -0.00029083 -9.1819e-18 9.61157e-18 1.05876e-32 0.001415 
4220 1 0.00732219 0.0249892 0.00802563 0 0 0 2.03028e-18 -1.50051e-17 -0.234312 1.87108e-20 -1.38285e-19 -0.00029083 -2.09023e-15 -2.82821e-16 7.18249e-31 0.001415 
2813 1 0.0621842 0.0261988 0.00814983 0 0 0 1.87439e-18 9.5105e-18 -0.234312 2.01092e-20 1.02032e-19 -0.00029083 1.74959e-15 -3.4482e-16 1.67403e-30 0.001415 
3551 1 0.0378271 0.027027 0.00874154 0 0 0 1.21011e-18 -7.07925e-18 -0.234312 -1.13264e-24 6.62602e-24 -0.00029083 5.63126e-17 9.62593e-18 -2.13286e-32 0.001415 
8776 1 0.0132433 0.0330907 0.0082408 0 0 0 -1.02092e-18 1.71817e-18 -0.234312 -1.30635e-20 2.19853e-20 -0.00029083 4.86616e-16 2.89143e-16 9.39857e-31 0.001415 
3969 1 -0.0266131 0.0377733 0.00764611 0 0 0 -3.5603e-17 1.11383e-16 -0.234312 -7.78052e-18 2.43411e-17 -0.00029083 -6.99884e-15 -2.23715e-15 1.16607e-29 0.001415 
7875 1 -0.0151895 0.0366812 0.00804704 0 0 0 5.26716e-18 6.23023e-18 -0.234312 4.70046e-20 5.55991e-20 -0.00029083 9.73034e-16 -8.22623e-16 2.25822e-30 0.001415 
4640 1 -0.000842548 0.0468509 0.00725549 0 0 0 -6.46034e-16 3.47861e-16 -0.234312 -4.01164e-17 2.1601e-17 -0.00029083 5.89006e-16 1.09388e-15 -4.45661e-29 0.001415 
5121 1 -0.0078553 -0.064238 0.0105688 0 0 0 -1.10393e-17 -3.88578e-18 -0.234312 8.86758e-18 3.12136e-18 -0.00029083 -3.88085e-16 1.10252e-15 1.67301e-28 0.001415 
6406 1 -0.013834 -0.0547628 0.00944613 0 0 0 1.93132e-17 -5.63055e-18 -0.234312 1.50538e-19 -4.38878e-20 -0.00029083 -5.88596e-16 -2.01893e-15 6.67337e-30 0.001415 
4747 1 -0.048396 -0.0516837 0.0102349 0 0 0 -5.78252e-17 8.4547e-18 -0.234312 -4.587e-19 6.70672e-20 -0.00029083 4.16387e-17 2.84784e-16 4.47072e-31 0.001415 
8904 1 0.00698378 -0.051284 0.00975429 0 0 0 0 0 -0.234312 0 0 -0.00029083 0 0 0 0.001415 
9218 1 -0.0344149 -0.0491301 0.0107253 0 0 0 -1.50286e-17 3.89011e-17 -0.234312 -2.0052e-19 5.19039e-19 -0.00029083 -8.26111e-15 -3.1915e-15 -8.79079e-29 0.001415 
8781 1 0.0111727 -0.0390904 0.0106317 0 0 0 -1.20388e-17 -5.49204e-18 -0.234312 4.10374e-19 1.8721e-19 -0.00029083 -4.67274e-15 1.02429e-14 -3.00808e-29 0.001415 
165 1 0.023542 -0.0395467 0.00973582 0 0 0 -0.00268465 -0.0358335 -0.0151975 1.49865e-09 2.00033e-08 -0.000291041 -10.1224 0.758373 -1.9332e-11 0.001415 
6551 1 -0.00658842 -0.0296093 0.00902893 0 0 0 4.92295e-18 -7.97894e-19 -0.234312 4.54127e-20 -7.36032e-21 -0.00029083 -1.19314e-16 -7.3616e-16 2.60088e-31 0.001415 
9787 1 -0.0202299 -0.023698 0.00984408 0 0 0 -8.5445e-18 -1.06248e-17 -0.234312 -7.84465e-20 -9.75457e-20 -0.00029083 -6.28042e-16 5.05073e-16 -2.43647e-29 0.001415 
1406 1 0.0148736 -0.0197 0.0094193 0 0 0 8.62019e-19 2.52185e-19 -0.234312 -8.0683e-25 -2.3604e-25 -0.00029083 -5.83727e-19 1.99529e-18 9.84953e-36 0.001415 
8588 1 -0.0403296 -0.0176897 0.00969391 0 0 0 8.42966e-18 -1.11325e-16 -0.234312 1.10052e-19 -1.45339e-18 -0.00029083 1.74285e-14 1.31971e-15 1.37226e-28 0.001415 
4389 1 -0.00210167 -0.0164576 0.0108284 0 0 0 2.01198e-17 -9.80819e-18 -0.234312 3.97015e-19 -1.9354e-19 -0.00029083 6.47065e-17 1.32734e-16 -4.08084e-29 0.001415 
8820 1 0.00980992 -0.0172644 0.0100217 0 0 0 0 0 -0.234312 0 0 -0.00029083 0 0 0 0.001415 
3529 1 0.0670132 -0.0166749 0.0103217 0 0 0 0 0 -0.234312 0 0 -0.00029083 0 0 0 0.001415 
4473 1 -0.0215554 -0.0144106 0.00979838 0 0 0 0 0 -0.234312 0 0 -0.00029083 0 0 0 0.001415 
5437 1 0.0244153 -0.0132218 0.00967535 0 0 0 -2.26057e-16 4.29541e-16 -0.234312 -1.75836e-17 3.34115e-17 -0.00029083 -4.35656e-15 -2.29275e-15 2.6928e-29 0.001415 
2099 1 -0.0146787 -0.0109948 0.00940807 0 0 0 -5.50046e-16 -9.97998e-17 -0.234312 -4.33515e-17 -7.86567e-18 -0.00029083 -4.02238e-16 2.21693e-15 9.27169e-29 0.001415 
4518 1 0.00403554 -0.00678852 0.0103802 0 0 0 -3.999e-17 4.774e-17 -0.234312 -5.01099e-19 5.98211e-19 -0.00029083 -1.56124e-14 -1.30779e-14 -4.35548e-28 0.001415 
9888 1 -0.0548111 -0.00420847 0.0104229 0 0 0 -1.41739e-17 1.7703e-17 -0.234312 -9.45139e-18 1.18046e-17 -0.00029083 -6.42792e-16 -5.14652e-16 5.87126e-29 0.001415 
3528 1 0.0516347 -0.000942708 0.00911034 0 0 0 -2.15231e-17 -9.78871e-18 -0.234312 -1.66806e-19 -7.58631e-20 -0.00029083 -1.17862e-15 2.59152e-15 -1.03958e-29 0.001415 
2457 1 0.0227749 0.00368251 0.00943332 0 0 0 0 0 -0.234312 0 0 -0.00029083 0 0 0 0.001415 
1470 1 -0.0541433 0.00552442 0.0106705 0 0 0 4.75673e-17 4.58384e-17 -0.234312 6.01071e-19 5.79224e-19 -0.00029083 -1.66807e-14 1.73099e-14 -1.49638e-28 0.001415 
7478 1 0.0063252 0.00556124 0.0105167 0 0 0 -1.29963e-17 1.31791e-17 -0.234312 -3.9408e-19 3.99622e-19 -0.00029083 -5.16616e-16 -5.09452e-16 -1.13304e-28 0.001415 
5545 1 -0.0302182 0.00727945 0.0108108 0 0 0 0 0 -0.234312 0 0 -0.00029083 0 0 0 0.001415 
6445 1 -0.0495051 0.00927345 0.0101948 0 0 0 -6.93107e-19 8.44367e-19 -0.234312 -1.7622e-20 2.14677e-20 -0.00029083 1.04731e-15 8.59692e-16 7.26647e-30 0.001415 
4431 1 -0.0620527 0.012605 0.0101893 0 0 0 -6.34751e-17 1.35597e-17 -0.234312 -7.72824e-19 1.65093e-19 -0.00029083 -3.5335e-15 -1.65409e-14 1.90062e-29 0.001415 
4367 1 0.0426483 0.0117219 0.0107164 0 0 0 -3.9114e-17 3.52836e-17 -0.234312 -6.97471e-19 6.2917e-19 -0.00029083 -4.16817e-15 -4.62065e-15 -2.0009e-28 0.001415 
5820 1 0.0722357 0.0116248 0.0099838 0 0 0 -1.83002e-17 1.75896e-17 -0.234312 -1.42528e-17 1.36993e-17 -0.00029083 -1.26754e-15 -1.31876e-15 -1.29369e-29 0.001415 
1280 1 -0.00826091 0.0224106 0.00931051 0 0 0 8.68977e-19 3.21895e-19 -0.234312 -8.13344e-25 -3.01287e-25 -0.00029083 -1.07239e-18 2.89499e-18 -1.24274e-33 0.001415 
2812 1 0.0619348 0.0249338 0.010669 0 0 0 1.07847e-17 5.47207e-17 -0.234312 2.04531e-19 1.03777e-18 -0.00029083 -6.73216e-15 1.32682e-15 -1.19038e-29 0.001415 
4219 1 0.00713294 0.0263879 0.0104785 0 0 0 6.98744e-18 -5.16417e-17 -0.234312 1.2686e-19 -9.37574e-19 -0.00029083 1.20947e-14 1.63648e-15 1.95812e-28 0.001415 
6216 1 -0.023401 0.0310553 0.010548 0 0 0 -3.37846e-18 -1.57084e-17 -0.234312 -2.85173e-20 -1.32593e-19 -0.00029083 -1.33876e-15 2.87933e-16 3.72889e-30 0.001415 
3968 1 -0.0261983 0.0364757 0.0101266 0 0 0 3.5603e-17 -1.11383e-16 -0.234312 7.78052e-18 -2.43411e-17 -0.00029083 -6.99884e-15 -2.23715e-15 1.16607e-29 0.001415 
7874 1 -0.0157052 0.0360712 0.010762 0 0 0 6.50844e-18 7.69846e-18 -0.234312 3.0681e-19 3.62909e-19 -0.00029083 8.84831e-16 -7.48054e-16 -1.38775e-28 0.001415 
9745 1 -0.0323504 0.0411674 0.00943295 0 0 0 0 0 -0.234312 0 0 -0.00029083 0 0 0 0.001415 
485 1 0.0142511 0.04219 0.00917218 0 0 0 -3.19519e-18 2.70824e-18 -0.234312 2.99063e-24 -2.53485e-24 -0.00029083 -1.57632e-17 -1.85974e-17 1.32794e-32 0.001415 
4098 1 0.0474587 0.0419422 0.00937757 0 0 0 2.93185e-18 -9.96894e-19 -0.234312 4.32078e-20 -1.46916e-20 -0.00029083 -5.4464e-17 -1.60178e-16 -2.94428e-32 0.001415 
4639 1 0.000319678 0.0462251 0.00975879 0 0 0 6.1009e-16 -3.28507e-16 -0.234312 3.93627e-17 -2.11951e-17 -0.00029083 2.60139e-15 4.8312e-15 2.37814e-29 0.001415 
7349 1 0.0388392 0.0490157 0.00972679 0 0 0 -2.01586e-18 -3.409e-17 -0.234312 -3.25435e-20 -5.50341e-19 -0.00029083 3.08753e-15 -1.82576e-16 -2.26433e-29 0.001415 
3318 1 0.0108764 -0.0748018 0.0118159 0 0 0 0 0 -0.234312 0 0 -0.00029083 0 0 0 0.001415 
6407 1 -0.0157638 -0.0542001 0.0114382 0 0 0 -1.93132e-17 5.63055e-18 -0.234312 -1.50538e-19 4.38878e-20 -0.00029083 -5.88596e-16 -2.01893e-15 6.67337e-30 0.001415 
4748 1 -0.0463698 -0.05198 0.0121883 0 0 0 -3.75068e-19 5.48392e-20 -0.234312 -4.19143e-19 6.12835e-20 -0.00029083 -4.24249e-15 -2.90161e-14 9.90658e-29 0.001415 
8903 1 0.00719176 -0.0530399 0.011964 0 0 0 -6.77762e-18 5.72198e-17 -0.234312 -1.07339e-19 9.06201e-19 -0.00029083 -1.62807e-14 -1.92844e-15 1.18597e-28 0.001415 
8421 1 -0.0125515 -0.050364 0.0116414 0 0 0 6.7678e-18 -1.80714e-17 -0.234312 2.08359e-19 -5.56361e-19 -0.00029083 2.62208e-15 9.8198e-16 -4.38622e-28 0.001415 
5040 1 0.0412118 -0.051077 0.0112185 0 0 0 0 0 -0.234312 0 0 -0.00029083 0 0 0 0.001415 
8294 1 0.0417911 -0.0460756 0.0109865 0 0 0 0 0 -0.234312 0 0 -0.00029083 0 0 0 0.001415 
164 1 0.0235048 -0.0400432 0.012531 0 0 0 -0.00275487 -0.0367707 0.00600197 1.52902e-09 2.04087e-08 -0.000291053 8.21628 -0.615565 -1.82199e-11 0.001415 
7141 1 -0.0440609 -0.0300013 0.012179 0 0 0 0 0 -0.234312 0 0 -0.00029083 0 0 0 0.001415 
6550 1 -0.00716818 -0.0295154 0.0117973 0 0 0 -5.8474e-18 9.47727e-19 -0.234312 -4.54118e-20 7.36018e-21 -0.00029083 -1.19165e-16 -7.35237e-16 2.62265e-31 0.001415 
9788 1 -0.0191042 -0.0222982 0.012031 0 0 0 -2.95283e-17 -3.67175e-17 -0.234312 -6.92471e-19 -8.61066e-19 -0.00029083 1.36667e-14 -1.09908e-14 6.32828e-28 0.001415 
1405 1 0.0162037 -0.0193109 0.0118867 0 0 0 -8.29201e-17 -2.42584e-17 -0.234312 -1.31893e-18 -3.85856e-19 -0.00029083 4.67541e-15 -1.59815e-14 -3.96643e-28 0.001415 
8819 1 0.00974619 -0.0192248 0.0120618 0 0 0 2.9258e-18 8.99885e-17 -0.234312 4.03446e-20 1.24087e-18 -0.00029083 -1.87246e-14 6.08793e-16 -1.36877e-28 0.001415 
8587 1 -0.0404076 -0.0166605 0.012329 0 0 0 5.70031e-17 -7.52803e-16 -0.234312 3.05562e-19 -4.03536e-18 -0.00029083 -4.90628e-15 -3.71509e-16 -4.87499e-29 0.001415 
4472 1 -0.0211077 -0.0159411 0.0121363 0 0 0 -3.06458e-17 1.04756e-16 -0.234312 -3.90607e-19 1.33521e-18 -0.00029083 -2.46651e-14 -7.21565e-15 -3.43792e-28 0.001415 
5436 1 0.0238697 -0.0121851 0.0122515 0 0 0 4.69046e-18 -8.91257e-18 -0.234312 6.55085e-20 -1.24476e-19 -0.00029083 1.11581e-14 5.87221e-15 1.628e-28 0.001415 
2098 1 -0.0163785 -0.0113032 0.0116496 0 0 0 -2.51336e-17 -4.56023e-18 -0.234312 -6.17648e-19 -1.12066e-19 -0.00029083 3.72947e-16 -2.05549e-15 -5.9139e-29 0.001415 
4519 1 0.0050482 -0.00799743 0.0127301 0 0 0 -5.02221e-16 5.99551e-16 -0.234312 -3.29104e-18 3.92883e-18 -0.00029083 9.97801e-16 8.3582e-16 9.67089e-28 0.001415 
3527 1 0.053278 -0.000195356 0.0112898 0 0 0 2.15231e-17 9.78871e-18 -0.234312 1.66806e-19 7.58631e-20 -0.00029083 -1.17862e-15 2.59152e-15 -1.03958e-29 0.001415 
4852 1 -0.0576017 0.00160357 0.0120508 0 0 0 2.99193e-17 4.90913e-17 -0.234312 4.68383e-19 7.68517e-19 -0.00029083 -1.0128e-14 6.17262e-15 3.34923e-28 0.001415 
2456 1 0.0231999 0.00341526 0.0122184 0 0 0 -3.11715e-16 1.96029e-16 -0.234312 -1.83455e-18 1.1537e-18 -0.00029083 2.44699e-15 3.89107e-15 -1.3303e-28 0.001415 
6444 1 -0.0485008 0.00805 0.0125407 0 0 0 -4.51922e-17 5.50547e-17 -0.234312 -8.04812e-19 9.8045e-19 -0.00029083 -1.4096e-14 -1.15708e-14 -1.08011e-27 0.001415 
7897 1 0.0202104 0.0106666 0.0123936 0 0 0 1.54831e-17 7.38017e-17 -0.234312 2.26211e-19 1.07826e-18 -0.00029083 -2.21926e-14 4.65584e-15 2.75239e-29 0.001415 
4430 1 -0.0607358 0.0123237 0.0126784 0 0 0 -7.4583e-16 1.59326e-16 -0.234312 -4.38478e-18 9.36688e-19 -0.00029083 8.34828e-16 3.90796e-15 -7.87995e-29 0.001415 
4345 1 0.0473197 0.0133822 0.011152 0 0 0 -9.70583e-18 -3.41141e-18 -0.234312 -6.01554e-19 -2.11434e-19 -0.00029083 1.16944e-15 -3.32719e-15 -1.1353e-28 0.001415 
5821 1 0.071151 0.0126674 0.0123807 0 0 0 -1.08595e-17 1.04378e-17 -0.234312 -1.03362e-19 9.93485e-20 -0.00029083 -1.33746e-15 -1.39149e-15 -1.50583e-29 0.001415 
9994 1 -0.0272948 0.0197145 0.011116 0 0 0 -6.02921e-17 -5.75969e-17 -0.234312 -9.58335e-19 -9.15494e-19 -0.00029083 1.25064e-14 -1.30917e-14 9.12939e-29 0.001415 
1279 1 -0.00741294 0.0227247 0.0119921 0 0 0 -6.35383e-17 -2.35365e-17 -0.234312 -9.1619e-19 -3.39384e-19 -0.00029083 7.42974e-16 -2.00571e-15 -7.99294e-29 0.001415 
3552 1 0.038076 0.0255707 0.0111553 0 0 0 -6.98839e-18 4.08827e-17 -0.234312 -1.38895e-19 8.12546e-19 -0.00029083 -1.00131e-14 -1.71161e-15 2.03146e-28 0.001415 
9955 1 0.0480973 0.0295036 0.0114507 0 0 0 0 0 -0.234312 0 0 -0.00029083 0 0 0 0.001415 
6215 1 -0.0229502 0.0331509 0.0123957 0 0 0 -6.61573e-18 -3.07603e-17 -0.234312 -1.34259e-19 -6.24245e-19 -0.00029083 2.20133e-14 -4.73449e-15 -1.79143e-28 0.001415 
8775 1 0.0134757 0.0326995 0.011034 0 0 0 -7.48922e-18 1.26041e-17 -0.234312 -1.59556e-19 2.68528e-19 -0.00029083 1.34619e-16 7.99896e-17 1.65101e-29 0.001415 
3967 1 -0.0257836 0.0351781 0.0126072 0 0 0 -2.69194e-16 8.42166e-16 -0.234312 -1.64762e-18 5.15453e-18 -0.00029083 8.31635e-15 2.65828e-15 -5.26068e-28 0.001415 
4099 1 0.0465216 0.0422608 0.0120289 0 0 0 8.96501e-18 -3.0483e-18 -0.234312 3.69195e-19 -1.25534e-19 -0.00029083 -1.58536e-16 -4.66253e-16 -9.49731e-29 0.001415 
9746 1 -0.0326219 0.0429159 0.0116416 0 0 0 1.01683e-17 -6.54877e-17 -0.234312 1.56134e-19 -1.00556e-18 -0.00029083 1.78511e-14 2.77175e-15 -1.67845e-28 0.001415 
486 1 0.0131757 0.0431015 0.0116261 0 0 0 7.53174e-17 -6.38389e-17 -0.234312 1.04762e-18 -8.87964e-19 -0.00029083 1.59973e-14 1.88736e-14 -1.79369e-28 0.001415 
4638 1 0.00148191 0.0455993 0.0122621 0 0 0 -2.92049e-19 1.57255e-19 -0.234312 -3.49499e-20 1.8819e-20 -0.00029083 -2.26958e-15 -4.21497e-15 4.27638e-28 0.001415 
7348 1 0.0388741 0.0496065 0.0124942 0 0 0 -3.27141e-17 -5.53225e-16 -0.234312 -2.02811e-19 -3.42972e-18 -0.00029083 6.51358e-15 -3.8517e-16 7.07073e-30 0.001415 
8316 1 0.0241447 0.055508 0.0121937 0 0 0 0 0 -0.234312 0 0 -0.00029083 0 0 0 0.001415 
4831 1 0.0293284 0.0560787 0.012663 0 0 0 8.44294e-16 -4.69336e-16 -0.234312 5.57165e-18 -3.09723e-18 -0.00029083 -1.4696e-14 -2.64367e-14 -1.01209e-27 0.001415 
6909 1 0.00964204 0.0590336 0.0126971 0 0 0 1.62031e-16 -9.76278e-17 -0.234312 1.82987e-18 -1.10254e-18 -0.00029083 2.59759e-14 4.31115e-14 -9.82085e-28 0.001415 
6048 1 -0.0014895 0.0671831 0.0110412 0 0 0 -7.0247e-17 -4.2213e-18 -0.234312 -1.19759e-18 -7.19658e-20 -0.00029083 7.91988e-16 -1.31795e-14 -7.12718e-29 0.001415 
3317 1 0.00879117 -0.0741345 0.013609 0 0 0 1.2023e-15 -3.84752e-16 -0.234312 2.65931e-18 -8.51016e-19 -0.00029083 -1.46672e-14 -4.58329e-14 -1.47733e-27 0.001415 
4537 1 0.0348065 -0.0668743 0.013587 0 0 0 4.56674e-16 -8.89343e-16 -0.234312 -4.27437e-22 8.32405e-22 -0.00029083 9.44226e-15 4.84857e-15 -4.63267e-29 0.001415 
5120 1 -0.00732864 -0.0640527 0.0133432 0 0 0 -5.45945e-16 -1.92171e-16 -0.234312 5.35299e-19 1.88423e-19 -0.00029083 2.46203e-15 -6.99448e-15 2.26438e-28 0.001415 
8902 1 0.00739974 -0.0547957 0.0141736 0 0 0 -1.73285e-16 1.46295e-15 -0.234312 1.07507e-19 -9.07624e-19 -0.00029083 2.07224e-14 2.45455e-15 -1.09439e-29 0.001415 
4749 1 -0.0443437 -0.0522762 0.0141417 0 0 0 -1.12677e-15 1.64746e-16 -0.234312 8.78952e-19 -1.28513e-19 -0.00029083 4.88955e-15 3.34416e-14 -1.16171e-28 0.001415 
6408 1 -0.0176936 -0.0536375 0.0134302 0 0 0 2.06807e-15 -6.02923e-16 -0.234312 2.56376e-17 -7.47435e-18 -0.00029083 -1.4896e-14 -5.10945e-14 -1.3723e-27 0.001415 
9217 1 -0.0337766 -0.0507822 0.0129325 0 0 0 -3.13292e-16 8.10946e-16 -0.234312 -1.7788e-18 4.60436e-18 -0.00029083 2.36156e-15 9.12338e-16 1.02199e-27 0.001415 
5039 1 0.0393096 -0.0515993 0.0132477 0 0 0 1.40996e-15 3.87148e-16 -0.234312 1.18418e-17 3.25152e-18 -0.00029083 7.87455e-15 -2.86785e-14 1.70207e-27 0.001415 
8420 1 -0.0130316 -0.0490822 0.0141183 0 0 0 4.74322e-16 -1.26653e-15 -0.234312 -2.0881e-19 5.57564e-19 -0.00029083 -1.28572e-14 -4.81508e-15 1.71852e-27 0.001415 
8293 1 0.0410995 -0.0444363 0.0131873 0 0 0 5.97468e-16 -1.41611e-15 -0.234312 3.3125e-18 -7.85124e-18 -0.00029083 -6.13292e-14 -2.58753e-14 2.23373e-28 0.001415 
8782 1 0.00995582 -0.0396456 0.0131256 0 0 0 1.08088e-15 4.9309e-16 -0.234312 -6.93162e-19 -3.16216e-19 -0.00029083 1.32195e-14 -2.89779e-14 -1.12706e-27 0.001415 
1765 1 -0.00582286 -0.0341936 0.0138805 0 0 0 1.27235e-15 -3.98165e-16 -0.234312 -1.19089e-21 3.72674e-22 -0.00029083 -1.59993e-14 -5.11262e-14 4.64356e-28 0.001415 
7142 1 -0.0430179 -0.0310366 0.0145976 0 0 0 -9.67364e-16 9.60204e-16 -0.234312 9.05431e-22 -8.98729e-22 -0.00029083 2.60954e-14 2.629e-14 -1.61907e-28 0.001415 
6549 1 -0.00774795 -0.0294214 0.0145657 0 0 0 6.58275e-16 -1.06691e-16 -0.234312 -6.1613e-22 9.98602e-23 -0.00029083 9.09325e-16 5.61047e-15 9.47507e-29 0.001415 
2898 1 -0.0015393 -0.0260351 0.0141527 0 0 0 8.47872e-16 -1.67378e-16 -0.234312 -7.93589e-22 1.56662e-22 -0.00029083 -5.03207e-16 -2.54905e-15 -8.95367e-29 0.001415 
1113 1 0.057839 -0.0250229 0.0130092 0 0 0 1.41369e-15 7.25286e-16 -0.234312 1.23898e-17 6.35653e-18 -0.00029083 1.01845e-14 -1.9851e-14 4.36969e-28 0.001415 
2604 1 -0.0264828 -0.0239558 0.0138772 0 0 0 1.49094e-15 -6.49147e-17 -0.234312 1.43972e-17 -6.26848e-19 -0.00029083 -2.52949e-15 -5.80964e-14 -1.58182e-28 0.001415 
7959 1 -0.0480224 -0.0227988 0.0145592 0 0 0 -1.3411e-15 8.36481e-16 -0.234312 1.25524e-21 -7.82928e-22 -0.00029083 2.46533e-14 3.95259e-14 2.38034e-27 0.001415 
8818 1 0.00968245 -0.0211851 0.0141019 0 0 0 4.48303e-17 1.37884e-15 -0.234312 -4.03893e-20 -1.24225e-18 -0.00029083 1.61959e-14 -5.2658e-16 -2.11057e-29 0.001415 
9789 1 -0.0179785 -0.0208985 0.0142178 0 0 0 -1.00524e-15 -1.24998e-15 -0.234312 7.71894e-19 9.59826e-19 -0.00029083 -2.86127e-14 2.30104e-14 -4.30737e-28 0.001415 
4471 1 -0.0206599 -0.0174716 0.0144743 0 0 0 -3.36819e-16 1.15134e-15 -0.234312 3.90951e-19 -1.33638e-18 -0.00029083 1.01719e-14 2.97573e-15 -3.63222e-29 0.001415 
1404 1 0.0175339 -0.0189217 0.0143541 0 0 0 -1.1985e-15 -3.50624e-16 -0.234312 1.32013e-18 3.86207e-19 -0.00029083 -3.31104e-15 1.13178e-14 8.30363e-28 0.001415 
3530 1 0.0663652 -0.0174708 0.012959 0 0 0 7.989e-16 9.81207e-16 -0.234312 2.09492e-18 2.57298e-18 -0.00029083 6.244e-15 -5.08387e-15 -7.85417e-28 0.001415 
4388 1 -0.00265555 -0.0161876 0.0135905 0 0 0 5.64504e-16 -2.75189e-16 -0.234312 -3.97562e-19 1.93807e-19 -0.00029083 2.22929e-15 4.57301e-15 1.25715e-29 0.001415 
2097 1 -0.0180782 -0.0116116 0.0138912 0 0 0 1.4748e-15 2.67586e-16 -0.234312 -1.38038e-21 -2.50455e-22 -0.00029083 8.10423e-15 -4.46664e-14 -1.64097e-27 0.001415 
9887 1 -0.0551901 -0.00373509 0.0131872 0 0 0 3.92681e-16 -4.90452e-16 -0.234312 -3.38747e-19 4.2309e-19 -0.00029083 6.3951e-15 5.12025e-15 3.33586e-29 0.001415 
4853 1 -0.0586257 -7.65915e-05 0.0140848 0 0 0 7.583e-16 1.24421e-15 -0.234312 -4.6912e-19 -7.69727e-19 -0.00029083 1.30396e-14 -7.94717e-15 -1.7428e-27 0.001415 
9743 1 -0.0492029 -0.00049722 0.01459 0 0 0 6.60407e-16 7.52259e-16 -0.234312 -3.03407e-19 -3.45606e-19 -0.00029083 2.63735e-14 -2.31533e-14 1.05866e-27 0.001415 
9744 1 -0.0476714 0.00124731 0.0129714 0 0 0 1.80226e-17 2.05293e-17 -0.234312 3.02772e-19 3.44882e-19 -0.00029083 -8.94577e-15 7.85348e-15 5.27653e-29 0.001415 
3403 1 0.0399954 0.00144601 0.0131063 0 0 0 -1.24505e-15 5.89185e-17 -0.234312 -1.0396e-17 4.9196e-19 -0.00029083 1.44505e-15 3.05364e-14 -2.40808e-28 0.001415 
3526 1 0.0549212 0.000551996 0.0134693 0 0 0 -1.47337e-15 -6.70088e-16 -0.234312 1.37904e-21 6.27187e-22 -0.00029083 -2.19844e-14 4.83385e-14 -1.36605e-27 0.001415 
3843 1 -0.0432547 0.00201405 0.0136918 0 0 0 1.21467e-15 8.27629e-16 -0.234312 -1.1369e-21 -7.74643e-22 -0.00029083 1.69881e-14 -2.49326e-14 2.0133e-27 0.001415 
6238 1 0.0476834 0.00358837 0.0132273 0 0 0 1.62739e-15 -1.04709e-15 -0.234312 1.16982e-17 -7.52683e-18 -0.00029083 -2.80899e-14 -4.36574e-14 7.91126e-28 0.001415 
1469 1 -0.0554428 0.00427207 0.0128503 0 0 0 6.52987e-16 6.29254e-16 -0.234312 3.95026e-18 3.80669e-18 -0.00029083 1.21602e-14 -1.26188e-14 -7.35488e-29 0.001415 
7479 1 0.00708078 0.00479504 0.0131341 0 0 0 -7.44597e-16 7.55068e-16 -0.234312 3.94789e-19 -4.00341e-19 -0.00029083 3.04523e-15 3.00301e-15 6.46805e-28 0.001415 
5546 1 -0.0286421 0.00814112 0.0129977 0 0 0 -1.15022e-15 -6.28844e-16 -0.234312 -7.76886e-18 -4.24735e-18 -0.00029083 -1.96919e-14 3.60187e-14 -3.23732e-27 0.001415 
7898 1 0.0197791 0.00861083 0.0142901 0 0 0 2.89444e-16 1.37966e-15 -0.234312 -2.26496e-19 -1.07962e-18 -0.00029083 3.10531e-14 -6.51471e-15 -4.34362e-28 0.001415 
4366 1 0.0434972 0.010956 0.0133052 0 0 0 -8.28594e-16 7.47452e-16 -0.234312 6.98283e-19 -6.29902e-19 -0.00029083 5.22373e-15 5.79081e-15 -1.9997e-28 0.001415 
1176 1 0.023371 0.01534 0.0142915 0 0 0 1.79915e-17 1.5245e-15 -0.234312 -1.68397e-23 -1.4269e-21 -0.00029083 2.40552e-14 -2.8389e-16 -5.20607e-30 0.001415 
4344 1 0.0486622 0.0138541 0.0135981 0 0 0 -1.3207e-15 -4.64199e-16 -0.234312 7.18691e-19 2.52606e-19 -0.00029083 -5.28544e-15 1.50377e-14 1.14772e-27 0.001415 
5629 1 -0.00809486 0.0186934 0.0134715 0 0 0 1.40355e-15 2.45532e-17 -0.234312 1.29033e-17 2.25724e-19 -0.00029083 1.04563e-15 -5.9772e-14 2.13361e-28 0.001415 
9993 1 -0.0262716 0.020692 0.0135668 0 0 0 -8.32772e-16 -7.95544e-16 -0.234312 9.59171e-19 9.16293e-19 -0.00029083 -1.7157e-14 1.79599e-14 1.28017e-27 0.001415 
3553 1 0.038325 0.0241144 0.013569 0 0 0 -1.98633e-16 1.16202e-15 -0.234312 1.39087e-19 -8.13672e-19 -0.00029083 2.00366e-14 3.42501e-15 4.73621e-28 0.001415 
2811 1 0.0616855 0.0236687 0.0131882 0 0 0 2.5022e-16 1.2696e-15 -0.234312 -2.24886e-19 -1.14105e-18 -0.00029083 5.67467e-15 -1.1184e-15 -3.92856e-28 0.001415 
4218 1 0.00694369 0.0277865 0.0129315 0 0 0 1.49461e-16 -1.10461e-15 -0.234312 5.3466e-19 -3.95148e-18 -0.00029083 -2.78341e-14 -3.76613e-15 6.58366e-29 0.001415 
9956 1 0.047731 0.0274693 0.0133836 0 0 0 2.77709e-16 1.54234e-15 -0.234312 2.49121e-18 1.38356e-17 -0.00029083 2.49178e-14 -4.48663e-15 -1.01824e-28 0.001415 
6007 1 0.0347873 0.0296881 0.0131535 0 0 0 3.83139e-16 4.29298e-16 -0.234312 -3.5861e-22 -4.01814e-22 -0.00029083 -2.63608e-15 2.35264e-15 1.33573e-29 0.001415 
8774 1 0.0137081 0.0323084 0.0138272 0 0 0 -2.45891e-16 4.13826e-16 -0.234312 1.72858e-19 -2.90914e-19 -0.00029083 -5.17216e-15 -3.07325e-15 -2.39511e-29 0.001415 
6214 1 -0.0224995 0.0352466 0.0142434 0 0 0 -2.86295e-16 -1.33115e-15 -0.234312 1.63054e-19 7.58128e-19 -0.00029083 -3.69613e-14 7.94942e-15 1.21112e-27 0.001415 
7873 1 -0.0162209 0.0354611 0.0134769 0 0 0 5.40113e-16 6.38869e-16 -0.234312 -3.54332e-19 -4.19119e-19 -0.00029083 -7.28425e-15 6.15825e-15 6.4699e-28 0.001415 
6847 1 -0.0500743 0.0395872 0.0136335 0 0 0 -1.47483e-15 6.36126e-16 -0.234312 -1.34255e-17 5.79069e-18 -0.00029083 2.89595e-14 6.71413e-14 -2.75592e-27 0.001415 
487 1 0.0121003 0.044013 0.01408 0 0 0 8.61109e-16 -7.29875e-16 -0.234312 -1.0485e-18 8.88707e-19 -0.00029083 -9.61229e-15 -1.13406e-14 3.24641e-28 0.001415 
9747 1 -0.0328934 0.0446643 0.0138502 0 0 0 2.26227e-16 -1.45698e-15 -0.234312 -1.56355e-19 1.00699e-18 -0.00029083 -2.65332e-14 -4.11984e-15 2.59323e-28 0.001415 
8988 1 0.0105277 0.0515901 0.0143375 0 0 0 5.22492e-16 -7.39186e-16 -0.234312 -4.89041e-22 6.91862e-22 -0.00029083 -3.21204e-14 -2.27042e-14 -3.57931e-29 0.001415 
8315 1 0.0261215 0.0546907 0.0140465 0 0 0 -1.44453e-15 5.97208e-16 -0.234312 1.35205e-21 -5.58974e-22 -0.00029083 1.11459e-14 2.69598e-14 -7.7835e-28 0.001415 
6908 1 0.00786074 0.0601069 0.0146164 0 0 0 1.10625e-15 -6.66543e-16 -0.234312 -1.83105e-18 1.10326e-18 -0.00029083 -4.95245e-15 -8.21947e-15 1.65518e-27 0.001415 
6047 1 -2.16486e-05 0.0672713 0.0134592 0 0 0 -1.40372e-15 -8.43524e-17 -0.234312 1.19897e-18 7.20487e-20 -0.00029083 -1.05007e-15 1.74743e-14 1.50235e-28 0.001415 
7455 1 0.00864732 0.0657086 0.0136055 0 0 0 -6.20898e-17 1.4724e-15 -0.234312 5.81146e-23 -1.37813e-21 -0.00029083 1.78871e-14 7.54286e-16 -6.19202e-29 0.001415 
8757 1 0.00829498 0.0765507 0.013052 0 0 0 0 0 -0.234312 0 0 -0.00029083 0 0 0 0.001415 
3316 1 0.00670592 -0.0734672 0.0154022 0 0 0 -1.0022e-15 3.20717e-16 -0.234312 -2.6595e-18 8.51076e-19 -0.00029083 -1.04838e-14 -3.27603e-14 -7.4837e-28 0.001415 
4538 1 0.0344028 -0.0660881 0.0162754 0 0 0 -4.37943e-16 8.52866e-16 -0.234312 3.47061e-19 -6.75879e-19 -0.00029083 5.46178e-15 2.80461e-15 4.43362e-28 0.001415 