ITEM: TIMESTEP
145000
ITEM: NUMBER OF ATOMS
10248
ITEM: BOX BOUNDS ff ff ff
-0.2 0.2
-0.2 0.2
-0.01 0.5
ITEM: ATOMS id type x y z ix iy iz vx vy vz fx fy fz omegax omegay omegaz radius 
168 1 0.0236607 -0.0379621 0.0014138 0 0 0 0.02641 0.352508 0.0012548 0.00170333 0.0227353 5.52235e-05 -249.272 18.6755 3.8524e-12 0.001415 
5124 1 -0.00943529 -0.0647942 0.00238447 0 0 0 -1.07555e-17 -3.7859e-18 -0.22843 9.94455e-24 3.50045e-24 -0.000290838 2.43539e-16 -6.91878e-16 1.49152e-32 0.001415 
9891 1 -0.0536741 -0.00562861 0.00226894 0 0 0 7.12618e-18 -8.90049e-18 -0.22843 -6.58888e-24 8.2294e-24 -0.000290838 6.62934e-16 5.30778e-16 -2.89623e-31 0.001415 
8778 1 0.0127785 0.033873 0.00279325 0 0 0 -4.2973e-18 7.2322e-18 -0.22843 3.97329e-24 -6.6869e-24 -0.000290838 -4.43922e-16 -2.63774e-16 3.6862e-31 0.001415 
5123 1 -0.00890863 -0.0646088 0.00515885 0 0 0 9.81914e-18 3.45631e-18 -0.22843 -9.07879e-24 -3.19571e-24 -0.000290838 2.4209e-16 -6.87761e-16 1.77193e-32 0.001415 
167 1 0.0236218 -0.0384816 0.00419301 0 0 0 0.0184795 0.246656 -0.0161158 0.001259 0.0168046 -0.00106002 325.191 -24.3634 9.97533e-12 0.001415 
5439 1 0.0255064 -0.015295 0.00466182 0 0 0 6.69734e-19 -1.27259e-18 -0.22843 -6.19237e-25 1.17664e-24 -0.000290838 -5.2389e-18 -2.7571e-18 2.2209e-33 0.001415 
9890 1 -0.0540531 -0.00515523 0.00503321 0 0 0 -6.21419e-18 7.76142e-18 -0.22843 5.74564e-24 -7.17622e-24 -0.000290838 6.56927e-16 5.25969e-16 -2.89943e-31 0.001415 
4096 1 0.0493328 0.0413049 0.00421383 0 0 0 1.30504e-17 -4.43741e-18 -0.22843 1.23412e-19 -4.19628e-20 -0.000290838 -4.8907e-16 -1.43835e-15 3.44353e-30 0.001415 
4641 1 -0.00200478 0.0474767 0.00489102 0 0 0 -2.10638e-18 1.13419e-18 -0.22843 1.94756e-24 -1.04868e-24 -0.000290838 5.34844e-18 9.93291e-18 -2.46526e-33 0.001415 
166 1 0.0235791 -0.0390519 0.0069622 0 0 0 -0.00848072 -0.113197 -0.08808 -0.000512852 -0.00684531 -0.00723759 -65.7187 4.92365 -1.15812e-11 0.001415 
8779 1 0.0136066 -0.0379801 0.00578261 0 0 0 1.14879e-19 5.24069e-20 -0.22843 -1.06217e-25 -4.84555e-26 -0.000290838 -4.07802e-19 8.93923e-19 -5.00745e-34 0.001415 
6552 1 -0.00600865 -0.0297033 0.00639937 0 0 0 7.94139e-19 -1.28711e-19 -0.22843 -7.34262e-25 1.19007e-25 -0.000290838 -4.68461e-19 -2.89037e-18 -2.04088e-34 0.001415 
1407 1 0.0135434 -0.0200891 0.0070907 0 0 0 -6.80082e-19 -1.98959e-19 -0.22843 6.28804e-25 1.83958e-25 -0.000290838 -4.80043e-19 1.64088e-18 -6.54847e-34 0.001415 
4516 1 0.00201022 -0.00437069 0.0058193 0 0 0 -1.07228e-18 1.28009e-18 -0.22843 9.91436e-25 -1.18358e-24 -0.000290838 4.69438e-18 3.9323e-18 -1.2481e-32 0.001415 
5818 1 0.0744051 0.00953964 0.00532874 0 0 0 2.36857e-19 -2.27659e-19 -0.22843 -2.18999e-25 2.10494e-25 -0.000290838 -2.53175e-19 -2.63404e-19 -1.71778e-34 0.001415 
6447 1 -0.0515136 0.0117203 0.00564168 0 0 0 -1.10172e-18 1.34215e-18 -0.22843 1.01865e-24 -1.24096e-24 -0.000290838 4.42226e-18 3.63006e-18 -1.38187e-32 0.001415 
4347 1 0.0446345 0.0124385 0.00639846 0 0 0 -7.28269e-19 -2.55972e-19 -0.22843 6.73358e-25 2.36672e-25 -0.000290838 -2.68495e-19 7.63898e-19 -3.25076e-35 0.001415 
9996 1 -0.0293411 0.0177597 0.00635311 0 0 0 -1.75253e-18 -1.67419e-18 -0.22843 1.62039e-24 1.54796e-24 -0.000290838 -7.58296e-18 7.9378e-18 1.07762e-32 0.001415 
1281 1 -0.00910888 0.0220965 0.0067677 0 0 0 -7.20026e-19 -2.66719e-19 -0.22843 6.65737e-25 2.46609e-25 -0.000290838 -8.97953e-19 2.42409e-18 -9.39089e-34 0.001415 
4221 1 0.00751144 0.0235905 0.00571154 0 0 0 3.08431e-20 -2.27951e-19 -0.22843 -2.85176e-26 2.10764e-25 -0.000290838 4.14618e-19 5.61004e-20 1.08546e-34 0.001415 
3550 1 0.0375782 0.0284832 0.0064666 0 0 0 -1.07711e-18 6.30117e-18 -0.22843 9.95893e-25 -5.82607e-24 -0.000290838 3.71252e-17 6.34609e-18 -1.16595e-32 0.001415 
2814 1 0.0624335 0.0274639 0.00576947 0 0 0 1.42412e-19 7.22589e-19 -0.22843 -1.31675e-25 -6.68107e-25 -0.000290838 1.17355e-18 -2.31291e-19 1.95762e-33 0.001415 
8777 1 0.0130109 0.0334818 0.00558644 0 0 0 4.09753e-18 -6.89598e-18 -0.22843 -3.78858e-24 6.37603e-24 -0.000290838 -4.43149e-16 -2.63315e-16 3.68499e-31 0.001415 
484 1 0.0153265 0.0412785 0.00685711 0 0 0 2.85374e-18 -2.41882e-18 -0.22843 -2.63857e-24 2.23645e-24 -0.000290838 -1.26408e-17 -1.49136e-17 1.11458e-32 0.001415 
4097 1 0.0483957 0.0416236 0.00686511 0 0 0 -1.15908e-17 3.94114e-18 -0.22843 -1.23413e-19 4.19633e-20 -0.000290838 -4.9059e-16 -1.44282e-15 3.44207e-30 0.001415 
7350 1 0.0388042 0.0484249 0.00709818 0 0 0 -4.44021e-21 -7.50879e-20 -0.22843 4.10542e-27 6.94264e-26 -0.000290838 2.59545e-19 -1.53478e-20 3.67245e-36 0.001415 
5122 1 -0.00838197 -0.0644234 0.00793322 0 0 0 1.70692e-19 6.00832e-20 -0.22843 -1.37563e-20 -4.84218e-21 -0.000290838 1.00387e-16 -2.85194e-16 -4.59075e-30 0.001415 
9219 1 -0.0350531 -0.0474779 0.00865684 0 0 0 0 0 -0.22843 0 0 -0.000290838 0 0 0 0.001415 
8295 1 0.0424827 -0.0477148 0.00892456 0 0 0 0 0 -0.22843 0 0 -0.000290838 0 0 0 0.001415 
8780 1 0.0123897 -0.0385353 0.00827656 0 0 0 2.88788e-17 1.31743e-17 -0.22843 2.8212e-19 1.28702e-19 -0.000290838 -2.43665e-15 5.34126e-15 -2.99694e-30 0.001415 
8589 1 -0.0402517 -0.0187189 0.00719767 0 0 0 5.78178e-20 -7.63561e-19 -0.22843 -5.34584e-26 7.0599e-25 -0.000290838 3.63262e-18 2.75066e-19 -1.53623e-32 0.001415 
5438 1 0.0249608 -0.0142584 0.007238 0 0 0 1.51115e-16 -2.87142e-16 -0.22843 2.25744e-18 -4.28947e-18 -0.000290838 -4.08429e-15 -2.14946e-15 -3.69315e-30 0.001415 
2100 1 -0.012979 -0.0106864 0.00730532 0 0 0 3.41211e-16 6.1909e-17 -0.22843 4.9153e-18 8.91828e-19 -0.000290838 -9.49343e-16 5.23229e-15 3.01337e-29 0.001415 
9889 1 -0.0544321 -0.00468185 0.00779747 0 0 0 -8.07329e-19 1.00834e-18 -0.22843 1.07613e-19 -1.34406e-19 -0.000290838 -3.57769e-17 -2.86448e-17 -7.70132e-32 0.001415 
4517 1 0.00302288 -0.0055796 0.00816918 0 0 0 1.07228e-18 -1.28009e-18 -0.22843 -9.91436e-25 1.18358e-24 -0.000290838 4.69438e-18 3.9323e-18 -1.2481e-32 0.001415 
7477 1 0.00556963 0.00632744 0.00803808 0 0 0 0 0 -0.22843 0 0 -0.000290838 0 0 0 0.001415 
6446 1 -0.0505093 0.0104969 0.00798764 0 0 0 -3.02944e-18 3.69057e-18 -0.22843 -4.14018e-20 5.04372e-20 -0.000290838 9.92407e-17 8.14627e-17 1.40539e-30 0.001415 
5819 1 0.0733204 0.0105822 0.00772568 0 0 0 -2.36823e-19 2.27627e-19 -0.22843 2.18967e-25 -2.10464e-25 -0.000290838 -2.38318e-19 -2.47946e-19 9.03019e-35 0.001415 
4368 1 0.0417993 0.0124877 0.00826649 0 0 0 0 0 -0.22843 0 0 -0.000290838 0 0 0 0.001415 
4346 1 0.0459771 0.0129104 0.00884463 0 0 0 -1.06185e-17 -3.73219e-18 -0.22843 -1.11719e-19 -3.92672e-20 -0.000290838 -3.7726e-16 1.07334e-15 -2.19917e-30 0.001415 
9995 1 -0.0283179 0.0187371 0.00880396 0 0 0 1.75253e-18 1.67419e-18 -0.22843 -1.62039e-24 -1.54796e-24 -0.000290838 -7.58296e-18 7.9378e-18 1.07762e-32 0.001415 
4220 1 0.00732219 0.0249892 0.00816445 0 0 0 1.67562e-18 -1.23839e-17 -0.22843 1.82741e-20 -1.35058e-19 -0.000290838 -9.93336e-16 -1.34404e-16 1.32487e-30 0.001415 
2813 1 0.0621842 0.0261988 0.00828865 0 0 0 1.51819e-18 7.70316e-18 -0.22843 1.87384e-20 9.50771e-20 -0.000290838 5.7877e-16 -1.14068e-16 4.97257e-31 0.001415 
3551 1 0.0378271 0.027027 0.00888036 0 0 0 1.07711e-18 -6.30117e-18 -0.22843 -9.95893e-25 5.82607e-24 -0.000290838 3.71252e-17 6.34609e-18 -1.16595e-32 0.001415 
8776 1 0.0132433 0.0330907 0.00837962 0 0 0 -8.13729e-19 1.36948e-18 -0.22843 -1.17891e-20 1.98406e-20 -0.000290838 1.6905e-16 1.00448e-16 8.60717e-31 0.001415 
3969 1 -0.0266131 0.0377733 0.00778493 0 0 0 -1.57105e-17 4.91499e-17 -0.22843 1.4526e-23 -4.5444e-23 -0.000290838 -5.68042e-15 -1.81572e-15 7.43072e-30 0.001415 
7875 1 -0.0151895 0.0366812 0.00818586 0 0 0 4.34755e-18 5.14247e-18 -0.22843 4.39829e-20 5.20249e-20 -0.000290838 6.21736e-16 -5.25628e-16 3.39976e-31 0.001415 
4640 1 -0.000842548 0.0468509 0.00739431 0 0 0 -4.00574e-16 2.15691e-16 -0.22843 -6.33132e-18 3.40914e-18 -0.000290838 -7.06398e-16 -1.3119e-15 -6.45813e-31 0.001415 
5121 1 -0.0078553 -0.064238 0.0107076 0 0 0 -1.95458e-17 -6.88007e-18 -0.22843 -4.99637e-19 -1.75871e-19 -0.000290838 -1.25035e-16 3.55216e-16 1.14783e-28 0.001415 
6406 1 -0.013834 -0.0547628 0.00958496 0 0 0 1.6224e-17 -4.72993e-18 -0.22843 1.54984e-19 -4.51838e-20 -0.000290838 -4.00946e-16 -1.37527e-15 1.78732e-30 0.001415 
4747 1 -0.048396 -0.0516837 0.0103737 0 0 0 -4.84536e-17 7.08447e-18 -0.22843 -4.68026e-19 6.84308e-20 -0.000290838 -9.74803e-17 -6.66707e-16 -2.77153e-30 0.001415 
8904 1 0.00698378 -0.051284 0.00989311 0 0 0 0 0 -0.22843 0 0 -0.000290838 0 0 0 0.001415 
9218 1 -0.0344149 -0.0491301 0.0108641 0 0 0 -1.11798e-17 2.89385e-17 -0.22843 -1.80203e-19 4.66451e-19 -0.000290838 -5.47219e-15 -2.11406e-15 -7.63166e-29 0.001415 
8781 1 0.0111727 -0.0390904 0.0107705 0 0 0 -2.01912e-17 -9.21111e-18 -0.22843 3.76268e-19 1.71651e-19 -0.000290838 -3.42751e-15 7.51326e-15 -2.66426e-29 0.001415 
165 1 0.0235435 -0.0395266 0.00974943 0 0 0 -0.00161435 -0.0215476 -0.0698468 2.68313e-05 0.000358132 -0.00578566 -0.302586 0.0226698 -8.98888e-12 0.001415 
6551 1 -0.00658842 -0.0296093 0.00916775 0 0 0 4.12153e-18 -6.68003e-19 -0.22843 4.68016e-20 -7.58543e-21 -0.000290838 -7.93041e-17 -4.893e-16 1.94464e-31 0.001415 
9787 1 -0.0202299 -0.023698 0.0099829 0 0 0 -7.00781e-18 -8.71399e-18 -0.22843 -7.34961e-20 -9.13901e-20 -0.000290838 -5.42621e-16 4.36377e-16 -1.05899e-29 0.001415 
1406 1 0.0148736 -0.0197 0.00955812 0 0 0 6.80082e-19 1.98959e-19 -0.22843 -6.28804e-25 -1.83958e-25 -0.000290838 -4.80043e-19 1.64088e-18 -6.54847e-34 0.001415 
8588 1 -0.0403296 -0.0176897 0.00983274 0 0 0 6.27804e-18 -8.29099e-17 -0.22843 1.04175e-19 -1.37577e-18 -0.000290838 1.13365e-14 8.58409e-16 9.81106e-29 0.001415 
4389 1 -0.00210167 -0.0164576 0.0109672 0 0 0 1.2089e-17 -5.89325e-18 -0.22843 3.86353e-19 -1.88343e-19 -0.000290838 1.31688e-16 2.70135e-16 -3.51641e-29 0.001415 
8820 1 0.00980992 -0.0172644 0.0101605 0 0 0 0 0 -0.22843 0 0 -0.000290838 0 0 0 0.001415 
3529 1 0.0670132 -0.0166749 0.0104605 0 0 0 0 0 -0.22843 0 0 -0.000290838 0 0 0 0.001415 
4473 1 -0.0215554 -0.0144106 0.0099372 0 0 0 0 0 -0.22843 0 0 -0.000290838 0 0 0 0.001415 
5437 1 0.0244153 -0.0132218 0.00981417 0 0 0 -1.34005e-16 2.5463e-16 -0.22843 -1.90667e-18 3.62296e-18 -0.000290838 -2.37263e-16 -1.24865e-16 2.3709e-30 0.001415 
2099 1 -0.0146787 -0.0109948 0.00954689 0 0 0 -3.2645e-16 -5.92308e-17 -0.22843 -4.44467e-18 -8.06437e-19 -0.000290838 -6.91733e-16 3.81248e-15 1.95161e-29 0.001415 
4518 1 0.00403554 -0.00678852 0.0105191 0 0 0 -3.03354e-17 3.62143e-17 -0.22843 -4.54e-19 5.41985e-19 -0.000290838 -1.09123e-14 -9.14079e-15 -3.42587e-28 0.001415 
9888 1 -0.0548111 -0.00420847 0.0105617 0 0 0 1.13743e-17 -1.42063e-17 -0.22843 2.01842e-19 -2.52098e-19 -0.000290838 4.00395e-16 3.20577e-16 3.65297e-29 0.001415 
3528 1 0.0516347 -0.000942708 0.00924916 0 0 0 -1.80965e-17 -8.2303e-18 -0.22843 -1.72088e-19 -7.82657e-20 -0.000290838 -8.03178e-16 1.766e-15 -2.95368e-30 0.001415 
2457 1 0.0227749 0.00368251 0.00957215 0 0 0 0 0 -0.22843 0 0 -0.000290838 0 0 0 0.001415 
1470 1 -0.0541433 0.00552442 0.0108093 0 0 0 3.60133e-17 3.47044e-17 -0.22843 5.41715e-19 5.22026e-19 -0.000290838 -1.10077e-14 1.14228e-14 -1.13018e-28 0.001415 
7478 1 0.0063252 0.00556124 0.0106555 0 0 0 -5.07008e-18 5.14138e-18 -0.22843 -3.78494e-19 3.83816e-19 -0.000290838 -5.64016e-16 -5.56194e-16 -4.15581e-29 0.001415 
5545 1 -0.0302182 0.00727945 0.0109496 0 0 0 0 0 -0.22843 0 0 -0.000290838 0 0 0 0.001415 
6445 1 -0.0495051 0.00927345 0.0103336 0 0 0 -3.91998e-19 4.77546e-19 -0.22843 -1.20899e-20 1.47283e-20 -0.000290838 4.01278e-16 3.29393e-16 1.51857e-30 0.001415 
4431 1 -0.0620527 0.012605 0.0103281 0 0 0 -4.85121e-17 1.03633e-17 -0.22843 -7.07499e-19 1.51138e-19 -0.000290838 -2.3539e-15 -1.1019e-14 -2.08531e-29 0.001415 
4367 1 0.0426483 0.0117219 0.0108553 0 0 0 -2.50396e-17 2.25875e-17 -0.22843 -6.76611e-19 6.10352e-19 -0.000290838 -3.09945e-15 -3.43592e-15 -3.35739e-29 0.001415 
5820 1 0.0722357 0.0116248 0.0101226 0 0 0 9.11126e-18 -8.75744e-18 -0.22843 8.68381e-20 -8.34659e-20 -0.000290838 -8.93718e-16 -9.29826e-16 -7.58636e-30 0.001415 
1280 1 -0.00826091 0.0224106 0.00944933 0 0 0 7.20026e-19 2.66719e-19 -0.22843 -6.65737e-25 -2.46609e-25 -0.000290838 -8.97953e-19 2.42409e-18 -9.39089e-34 0.001415 
2812 1 0.0619348 0.0249338 0.0108078 0 0 0 6.66288e-18 3.38069e-17 -0.22843 1.97415e-19 1.00167e-18 -0.000290838 -5.06759e-15 9.98752e-16 -2.47468e-29 0.001415 
4219 1 0.00713294 0.0263879 0.0106174 0 0 0 4.51963e-18 -3.3403e-17 -0.22843 1.17075e-19 -8.65261e-19 -0.000290838 7.01356e-15 9.48979e-16 8.86276e-29 0.001415 
6216 1 -0.023401 0.0310553 0.0106868 0 0 0 -2.80426e-18 -1.30386e-17 -0.22843 -2.82577e-20 -1.31386e-19 -0.000290838 -8.45357e-16 1.81814e-16 2.78044e-30 0.001415 
3968 1 -0.0261983 0.0364757 0.0102655 0 0 0 1.57105e-17 -4.91499e-17 -0.22843 -1.4526e-23 4.5444e-23 -0.000290838 -5.68042e-15 -1.81572e-15 7.43072e-30 0.001415 
7874 1 -0.0157052 0.0360712 0.0109008 0 0 0 2.85824e-19 3.38085e-19 -0.22843 2.99e-19 3.5367e-19 -0.000290838 2.31284e-16 -1.95533e-16 -4.95936e-29 0.001415 
9745 1 -0.0323504 0.0411674 0.00957177 0 0 0 0 0 -0.22843 0 0 -0.000290838 0 0 0 0.001415 
485 1 0.0142511 0.04219 0.00931101 0 0 0 -2.85374e-18 2.41882e-18 -0.22843 2.63857e-24 -2.23645e-24 -0.000290838 -1.26408e-17 -1.49136e-17 1.11458e-32 0.001415 
4098 1 0.0474587 0.0419422 0.00951639 0 0 0 2.32482e-18 -7.90491e-19 -0.22843 3.89293e-20 -1.32368e-20 -0.000290838 -6.91184e-17 -2.03276e-16 -4.69324e-31 0.001415 
4639 1 0.000319678 0.0462251 0.00989761 0 0 0 3.77503e-16 -2.03269e-16 -0.22843 5.75203e-18 -3.09722e-18 -0.000290838 5.97463e-16 1.10958e-15 3.68627e-29 0.001415 
7349 1 0.0388392 0.0490157 0.00986561 0 0 0 -1.39401e-18 -2.35739e-17 -0.22843 -2.9277e-20 -4.95101e-19 -0.000290838 1.31603e-15 -7.78213e-17 -1.01463e-29 0.001415 
3318 1 0.0108764 -0.0748018 0.0119547 0 0 0 0 0 -0.22843 0 0 -0.000290838 0 0 0 0.001415 
6407 1 -0.0157638 -0.0542001 0.011577 0 0 0 -1.6224e-17 4.72993e-18 -0.22843 -1.54984e-19 4.51838e-20 -0.000290838 -4.00946e-16 -1.37527e-15 1.78732e-30 0.001415 
4748 1 -0.0463698 -0.05198 0.0123271 0 0 0 7.76144e-18 -1.13481e-18 -0.22843 -3.60157e-19 5.26591e-20 -0.000290838 -3.03661e-15 -2.07686e-14 6.79721e-29 0.001415 
8903 1 0.00719176 -0.0530399 0.0121028 0 0 0 -4.6395e-18 3.91688e-17 -0.22843 -1.00912e-19 8.51946e-19 -0.000290838 -1.16481e-14 -1.3797e-15 8.75232e-29 0.001415 
8421 1 -0.0125515 -0.050364 0.0117802 0 0 0 2.61103e-18 -6.97198e-18 -0.22843 1.96535e-19 -5.24787e-19 -0.000290838 1.51861e-15 5.68726e-16 -1.38813e-28 0.001415 
5040 1 0.0412118 -0.051077 0.0113573 0 0 0 0 0 -0.22843 0 0 -0.000290838 0 0 0 0.001415 
8294 1 0.0417911 -0.0460756 0.0111254 0 0 0 0 0 -0.22843 0 0 -0.000290838 0 0 0 0.001415 
164 1 0.0235064 -0.0400223 0.0125329 0 0 0 -0.00197885 -0.0264128 -0.0680942 0.000122504 0.00163513 -0.004845 3.45825 -0.259093 -1.8933e-11 0.001415 
7141 1 -0.0440609 -0.0300013 0.0123178 0 0 0 0 0 -0.22843 0 0 -0.000290838 0 0 0 0.001415 
6550 1 -0.00716818 -0.0295154 0.0119361 0 0 0 -4.91567e-18 7.96715e-19 -0.22843 -4.68008e-20 7.58531e-21 -0.000290838 -7.88356e-17 -4.8641e-16 1.94668e-31 0.001415 
9788 1 -0.0191042 -0.0222982 0.0121698 0 0 0 -1.56612e-17 -1.94743e-17 -0.22843 -6.58583e-19 -8.18927e-19 -0.000290838 9.15475e-15 -7.36227e-15 4.44992e-28 0.001415 
1405 1 0.0162037 -0.0193109 0.0120255 0 0 0 -5.63313e-17 -1.64798e-17 -0.22843 -1.27958e-18 -3.74345e-19 -0.000290838 3.1259e-15 -1.06849e-14 -2.16018e-28 0.001415 
8819 1 0.00974619 -0.0192248 0.0122006 0 0 0 2.11702e-18 6.51129e-17 -0.22843 3.8567e-20 1.1862e-18 -0.000290838 -1.29907e-14 4.22367e-16 -7.59968e-29 0.001415 
8587 1 -0.0404076 -0.0166605 0.0124678 0 0 0 4.98079e-17 -6.57781e-16 -0.22843 3.78433e-19 -4.99771e-18 -0.000290838 -1.38784e-15 -1.05089e-16 -3.25689e-29 0.001415 
4472 1 -0.0211077 -0.0159411 0.0122751 0 0 0 -2.27772e-17 7.7859e-17 -0.22843 -3.78021e-19 1.29219e-18 -0.000290838 -1.75007e-14 -5.11972e-15 -1.71415e-28 0.001415 
5436 1 0.0238697 -0.0121851 0.0123904 0 0 0 2.30013e-18 -4.3706e-18 -0.22843 1.28518e-19 -2.44203e-19 -0.000290838 8.48608e-15 4.466e-15 7.26327e-29 0.001415 
2098 1 -0.0163785 -0.0113032 0.0117885 0 0 0 -1.47609e-17 -2.67821e-18 -0.22843 -4.70631e-19 -8.53909e-20 -0.000290838 2.5761e-16 -1.41982e-15 -1.06176e-29 0.001415 
4519 1 0.0050482 -0.00799743 0.0128689 0 0 0 -4.33309e-16 5.17284e-16 -0.22843 -3.50948e-18 4.18961e-18 -0.000290838 3.38489e-16 2.83539e-16 7.85628e-28 0.001415 
3527 1 0.053278 -0.000195356 0.0114286 0 0 0 1.80965e-17 8.2303e-18 -0.22843 1.72088e-19 7.82657e-20 -0.000290838 -8.03178e-16 1.766e-15 -2.95368e-30 0.001415 
4852 1 -0.0576017 0.00160357 0.0121896 0 0 0 2.05786e-17 3.37652e-17 -0.22843 4.4135e-19 7.24163e-19 -0.000290838 -7.34868e-15 4.47875e-15 9.82183e-29 0.001415 
2456 1 0.0231999 0.00341526 0.0123573 0 0 0 -2.7366e-16 1.72097e-16 -0.22843 -1.91845e-18 1.20646e-18 -0.000290838 1.3978e-15 2.22271e-15 -6.00974e-29 0.001415 
6444 1 -0.0485008 0.00805 0.0126796 0 0 0 -2.89457e-17 3.52627e-17 -0.22843 -7.80562e-19 9.50908e-19 -0.000290838 -1.01763e-14 -8.35334e-15 -5.08339e-28 0.001415 
7897 1 0.0202104 0.0106666 0.0125324 0 0 0 1.09694e-17 5.22867e-17 -0.22843 2.13816e-19 1.01918e-18 -0.000290838 -1.46977e-14 3.08347e-15 -1.36688e-29 0.001415 
4430 1 -0.0607358 0.0123237 0.0128172 0 0 0 -6.53952e-16 1.39699e-16 -0.22843 -4.67561e-18 9.98816e-19 -0.000290838 6.33948e-16 2.96761e-15 -6.27513e-29 0.001415 
4345 1 0.0473197 0.0133822 0.0112908 0 0 0 2.30774e-18 8.11124e-19 -0.22843 -5.65674e-19 -1.98823e-19 -0.000290838 4.72402e-16 -1.34404e-15 -3.60515e-29 0.001415 
5821 1 0.071151 0.0126674 0.0125196 0 0 0 -9.1113e-18 8.75748e-18 -0.22843 -8.68381e-20 8.34659e-20 -0.000290838 -8.93733e-16 -9.29841e-16 -7.58662e-30 0.001415 
9994 1 -0.0272948 0.0197145 0.0112548 0 0 0 -4.09461e-17 -3.91157e-17 -0.22843 -9.32036e-19 -8.90372e-19 -0.000290838 8.38245e-15 -8.77471e-15 1.26009e-28 0.001415 
1279 1 -0.00741294 0.0227247 0.012131 0 0 0 -4.48979e-17 -1.66315e-17 -0.22843 -9.06625e-19 -3.35841e-19 -0.000290838 9.12289e-16 -2.46279e-15 -5.64729e-29 0.001415 
3552 1 0.038076 0.0255707 0.0112941 0 0 0 -4.19917e-18 2.45655e-17 -0.22843 -1.32903e-19 7.77494e-19 -0.000290838 -6.55057e-15 -1.11974e-15 1.00646e-28 0.001415 
9955 1 0.0480973 0.0295036 0.0115895 0 0 0 0 0 -0.22843 0 0 -0.000290838 0 0 0 0.001415 
6215 1 -0.0229502 0.0331509 0.0125345 0 0 0 -3.96308e-18 -1.84266e-17 -0.22843 -1.23138e-19 -5.72537e-19 -0.000290838 1.48634e-14 -3.19672e-15 -1.03427e-28 0.001415 
8775 1 0.0134757 0.0326995 0.0111728 0 0 0 -4.25215e-18 7.1562e-18 -0.22843 -1.55921e-19 2.6241e-19 -0.000290838 -1.87528e-16 -1.11427e-16 1.1082e-29 0.001415 
3967 1 -0.0257836 0.0351781 0.012746 0 0 0 -2.35035e-16 7.35299e-16 -0.22843 -1.72105e-18 5.38425e-18 -0.000290838 4.36953e-15 1.3967e-15 -2.47488e-28 0.001415 
4099 1 0.0465216 0.0422608 0.0121677 0 0 0 1.50121e-18 -5.10446e-19 -0.22843 3.56873e-19 -1.21345e-19 -0.000290838 4.73672e-17 1.39306e-16 -1.33567e-29 0.001415 
9746 1 -0.0326219 0.0429159 0.0117804 0 0 0 7.05502e-18 -4.54368e-17 -0.22843 1.47248e-19 -9.48328e-19 -0.000290838 1.27626e-14 1.98166e-15 -8.15748e-29 0.001415 
486 1 0.0131757 0.0431015 0.0117649 0 0 0 5.41469e-17 -4.58949e-17 -0.22843 1.02164e-18 -8.6594e-19 -0.000290838 1.14969e-14 1.35641e-14 -3.96156e-29 0.001415 
4638 1 0.00148191 0.0455993 0.0124009 0 0 0 2.59688e-18 -1.39831e-18 -0.22843 -1.69657e-19 9.13531e-20 -0.000290838 -1.50897e-15 -2.8024e-15 1.72177e-28 0.001415 
7348 1 0.0388741 0.0496065 0.012633 0 0 0 -2.81579e-17 -4.76176e-16 -0.22843 -2.37083e-19 -4.00928e-18 -0.000290838 6.84697e-15 -4.04885e-16 -1.14941e-30 0.001415 
8316 1 0.0241447 0.055508 0.0123325 0 0 0 0 0 -0.22843 0 0 -0.000290838 0 0 0 0.001415 
4831 1 0.0293284 0.0560787 0.0128018 0 0 0 7.28715e-16 -4.05087e-16 -0.22843 5.83808e-18 -3.24534e-18 -0.000290838 -1.05206e-14 -1.89256e-14 -8.39718e-28 0.001415 
6909 1 0.00964204 0.0590336 0.0128359 0 0 0 1.25078e-16 -7.5363e-17 -0.22843 1.78846e-18 -1.07759e-18 -0.000290838 1.81067e-14 3.00513e-14 -7.17393e-28 0.001415 
6048 1 -0.0014895 0.0671831 0.0111801 0 0 0 -4.62271e-17 -2.77789e-18 -0.22843 -1.1469e-18 -6.892e-20 -0.000290838 5.2858e-16 -8.79615e-15 -4.48615e-29 0.001415 
3317 1 0.00879117 -0.0741345 0.0137479 0 0 0 1.14734e-15 -3.67165e-16 -0.22843 2.74812e-18 -8.79438e-19 -0.000290838 -9.59736e-15 -2.99905e-14 -1.24285e-27 0.001415 
4537 1 0.0348065 -0.0668743 0.0137258 0 0 0 4.26944e-16 -8.31444e-16 -0.22843 4.75459e-18 -9.25926e-18 -0.000290838 6.48256e-15 3.32877e-15 1.68579e-29 0.001415 
5120 1 -0.00732864 -0.0640527 0.013482 0 0 0 -5.20434e-16 -1.83191e-16 -0.22843 -5.54323e-18 -1.9512e-18 -0.000290838 1.91022e-15 -5.42681e-15 1.39792e-28 0.001415 
8902 1 0.00739974 -0.0547957 0.0143125 0 0 0 -1.61417e-16 1.36276e-15 -0.22843 -1.90123e-18 1.6051e-17 -0.000290838 1.59093e-14 1.88444e-15 9.40692e-31 0.001415 
4749 1 -0.0443437 -0.0522762 0.0142805 0 0 0 -1.0607e-15 1.55087e-16 -0.22843 -1.29896e-17 1.89922e-18 -0.000290838 4.3747e-15 2.99204e-14 -9.53803e-29 0.001415 
6408 1 -0.0176936 -0.0536375 0.0135691 0 0 0 1.51832e-15 -4.42651e-16 -0.22843 2.82087e-17 -8.22393e-18 -0.000290838 -7.52879e-15 -2.58243e-14 -8.34547e-28 0.001415 
9217 1 -0.0337766 -0.0507822 0.0130713 0 0 0 -2.76181e-16 7.14886e-16 -0.22843 -1.87978e-18 4.86575e-18 -0.000290838 5.31355e-16 2.05278e-16 8.44208e-28 0.001415 
5039 1 0.0393096 -0.0515993 0.0133866 0 0 0 1.16368e-15 3.19523e-16 -0.22843 1.25021e-17 3.43282e-18 -0.000290838 4.15876e-15 -1.51459e-14 8.96511e-28 0.001415 
8420 1 -0.0130316 -0.0490822 0.0142572 0 0 0 4.44498e-16 -1.1869e-15 -0.22843 4.99135e-18 -1.33279e-17 -0.000290838 -9.5608e-15 -3.58055e-15 1.1182e-27 0.001415 
8293 1 0.0410995 -0.0444363 0.0133261 0 0 0 5.26023e-16 -1.24677e-15 -0.22843 3.65478e-18 -8.6625e-18 -0.000290838 -3.81664e-14 -1.61027e-14 8.66047e-28 0.001415 
8782 1 0.00995582 -0.0396456 0.0132645 0 0 0 1.02131e-15 4.65918e-16 -0.22843 1.14616e-17 5.2287e-18 -0.000290838 1.12305e-14 -2.46179e-14 -6.79913e-28 0.001415 
1765 1 -0.00582286 -0.0341936 0.0140193 0 0 0 1.17291e-15 -3.67048e-16 -0.22843 1.4502e-17 -4.53824e-18 -0.000290838 -1.2598e-14 -4.0257e-14 4.71462e-28 0.001415 
7142 1 -0.0430179 -0.0310366 0.0147364 0 0 0 -9.00501e-16 8.93837e-16 -0.22843 -1.04862e-17 1.04086e-17 -0.000290838 1.96163e-14 1.97626e-14 4.37865e-29 0.001415 
6549 1 -0.00774795 -0.0294214 0.0147045 0 0 0 6.16159e-16 -9.98649e-17 -0.22843 6.92251e-18 -1.12198e-18 -0.000290838 5.32842e-16 3.28759e-15 6.03037e-29 0.001415 
2898 1 -0.0015393 -0.0260351 0.0142915 0 0 0 7.92023e-16 -1.56353e-16 -0.22843 8.72842e-18 -1.72307e-18 -0.000290838 -5.60184e-16 -2.83768e-15 -4.03093e-29 0.001415 
1113 1 0.057839 -0.0250229 0.0131481 0 0 0 1.14624e-15 5.88074e-16 -0.22843 1.37096e-17 7.03365e-18 -0.000290838 7.76198e-15 -1.51292e-14 3.17509e-28 0.001415 
2604 1 -0.0264828 -0.0239558 0.014016 0 0 0 1.19095e-15 -5.18531e-17 -0.22843 1.43792e-17 -6.26062e-19 -0.000290838 -1.8335e-15 -4.21113e-14 -5.20997e-29 0.001415 
7959 1 -0.0480224 -0.0227988 0.014698 0 0 0 -1.23026e-15 7.67347e-16 -0.22843 -1.47685e-17 9.21149e-18 -0.000290838 1.7927e-14 2.87417e-14 1.76972e-27 0.001415 
8818 1 0.00968245 -0.0211851 0.0142407 0 0 0 4.19398e-17 1.28994e-15 -0.22843 5.02189e-19 1.54457e-17 -0.000290838 1.22201e-14 -3.97312e-16 -3.21098e-29 0.001415 
9789 1 -0.0179785 -0.0208985 0.0143567 0 0 0 -9.41125e-16 -1.17026e-15 -0.22843 -1.04379e-17 -1.29792e-17 -0.000290838 -2.38728e-14 1.91986e-14 -1.8196e-28 0.001415 
4471 1 -0.0206599 -0.0174716 0.0146131 0 0 0 -3.18232e-16 1.08781e-15 -0.22843 -3.8506e-18 1.31625e-17 -0.000290838 6.70279e-15 1.96086e-15 -1.21985e-30 0.001415 
1404 1 0.0175339 -0.0189217 0.014493 0 0 0 -1.13502e-15 -3.32053e-16 -0.22843 -1.27863e-17 -3.74064e-18 -0.000290838 -2.87012e-15 9.81064e-15 5.16196e-28 0.001415 
3530 1 0.0663652 -0.0174708 0.0130978 0 0 0 7.39644e-16 9.0843e-16 -0.22843 8.19497e-18 1.0065e-17 -0.000290838 5.53482e-15 -4.50645e-15 -9.84815e-28 0.001415 
4388 1 -0.00265555 -0.0161876 0.0137293 0 0 0 5.36514e-16 -2.61544e-16 -0.22843 5.81143e-18 -2.83301e-18 -0.000290838 1.75679e-15 3.60376e-15 5.65129e-29 0.001415 
2097 1 -0.0180782 -0.0116116 0.01403 0 0 0 1.36892e-15 2.48376e-16 -0.22843 1.5937e-17 2.89159e-18 -0.000290838 6.41444e-15 -3.53531e-14 -7.91656e-28 0.001415 
9887 1 -0.0551901 -0.00373509 0.013326 0 0 0 3.73722e-16 -4.66772e-16 -0.22843 4.05417e-18 -5.0636e-18 -0.000290838 4.77739e-15 3.82502e-15 -3.09969e-29 0.001415 
4853 1 -0.0586257 -7.65915e-05 0.0142237 0 0 0 7.06478e-16 1.15918e-15 -0.22843 8.39614e-18 1.37763e-17 -0.000290838 8.17988e-15 -4.98534e-15 -7.60073e-28 0.001415 
9743 1 -0.0492029 -0.00049722 0.0147288 0 0 0 6.179e-16 7.03839e-16 -0.22843 7.58219e-18 8.63674e-18 -0.000290838 2.36009e-14 -2.07192e-14 9.80701e-28 0.001415 
9744 1 -0.0476714 0.00124731 0.0131102 0 0 0 1.199e-17 1.36577e-17 -0.22843 2.83621e-19 3.23068e-19 -0.000290838 -5.61692e-15 4.93109e-15 -1.19536e-28 0.001415 
3403 1 0.0399954 0.00144601 0.0132452 0 0 0 -1.02896e-15 4.86927e-17 -0.22843 -1.09654e-17 5.18906e-19 -0.000290838 8.29379e-16 1.75262e-14 -1.09847e-28 0.001415 
3526 1 0.0549212 0.000551996 0.0136081 0 0 0 -1.36353e-15 -6.20133e-16 -0.22843 -1.57338e-17 -7.15572e-18 -0.000290838 -1.68781e-14 3.71111e-14 -1.32923e-27 0.001415 
3843 1 -0.0432547 0.00201405 0.0138306 0 0 0 1.12316e-15 7.65281e-16 -0.22843 1.35224e-17 9.21363e-18 -0.000290838 1.18881e-14 -1.74476e-14 1.40028e-27 0.001415 
6238 1 0.0476834 0.00358837 0.0133661 0 0 0 1.36594e-15 -8.78869e-16 -0.22843 1.55587e-17 -1.00107e-17 -0.000290838 -1.64948e-14 -2.56363e-14 6.81337e-28 0.001415 
1469 1 -0.0554428 0.00427207 0.0129891 0 0 0 5.70212e-16 5.49487e-16 -0.22843 4.22019e-18 4.06681e-18 -0.000290838 8.32478e-15 -8.63877e-15 -1.65194e-28 0.001415 
7479 1 0.00708078 0.00479504 0.0132729 0 0 0 -7.05537e-16 7.15459e-16 -0.22843 -7.56083e-18 7.66716e-18 -0.000290838 1.78781e-15 1.76302e-15 4.00736e-28 0.001415 
5546 1 -0.0286421 0.00814112 0.0131365 0 0 0 -9.88899e-16 -5.40645e-16 -0.22843 -8.16732e-18 -4.46519e-18 -0.000290838 -1.37465e-14 2.51439e-14 -1.83632e-27 0.001415 
7898 1 0.0197791 0.00861083 0.0144289 0 0 0 2.69828e-16 1.28617e-15 -0.22843 3.19028e-18 1.52068e-17 -0.000290838 2.55604e-14 -5.36239e-15 -3.69143e-28 0.001415 
4366 1 0.0434972 0.010956 0.013444 0 0 0 -7.87158e-16 7.10074e-16 -0.22843 -8.36136e-18 7.54255e-18 -0.000290838 3.97206e-15 4.40326e-15 -1.40718e-28 0.001415 
1176 1 0.023371 0.01534 0.0144304 0 0 0 1.66624e-17 1.41188e-15 -0.22843 1.90147e-19 1.61119e-17 -0.000290838 1.83495e-14 -2.16553e-16 -2.23053e-30 0.001415 
4344 1 0.0486622 0.0138541 0.013737 0 0 0 -1.23911e-15 -4.35524e-16 -0.22843 -1.38368e-17 -4.86335e-18 -0.000290838 -4.44994e-15 1.26606e-14 6.81242e-28 0.001415 
5629 1 -0.00809486 0.0186934 0.0136103 0 0 0 1.13541e-15 1.98624e-17 -0.22843 1.36116e-17 2.38116e-19 -0.000290838 7.30853e-16 -4.17783e-14 1.28041e-28 0.001415 
9993 1 -0.0262716 0.020692 0.0137057 0 0 0 -7.92602e-16 -7.5717e-16 -0.22843 -8.96207e-18 -8.56144e-18 -0.000290838 -1.46216e-14 1.53059e-14 8.59956e-28 0.001415 
3553 1 0.038325 0.0241144 0.0137079 0 0 0 -1.87906e-16 1.09927e-15 -0.22843 -2.14265e-18 1.25347e-17 -0.000290838 1.67198e-14 2.85804e-15 2.87853e-28 0.001415 
2811 1 0.0616855 0.0236687 0.013327 0 0 0 2.35777e-16 1.19631e-15 -0.22843 2.62698e-18 1.33291e-17 -0.000290838 4.81116e-15 -9.48215e-16 -2.75392e-28 0.001415 
4218 1 0.00694369 0.0277865 0.0130703 0 0 0 1.36898e-16 -1.01176e-15 -0.22843 6.58353e-19 -4.86565e-18 -0.000290838 -1.74969e-14 -2.36744e-15 1.17022e-28 0.001415 
9956 1 0.047731 0.0274693 0.0135225 0 0 0 2.23657e-16 1.24215e-15 -0.22843 2.77331e-18 1.54023e-17 -0.000290838 1.51709e-14 -2.73163e-15 -4.60002e-29 0.001415 
6007 1 0.0347873 0.0296881 0.0132923 0 0 0 3.60777e-16 4.04242e-16 -0.22843 4.09241e-18 4.58545e-18 -0.000290838 -1.74019e-15 1.55308e-15 4.12179e-29 0.001415 
8774 1 0.0137081 0.0323084 0.013966 0 0 0 -2.33602e-16 3.93143e-16 -0.22843 -2.53406e-18 4.26472e-18 -0.000290838 -4.03653e-15 -2.39847e-15 -1.9805e-29 0.001415 
6214 1 -0.0224995 0.0352466 0.0143822 0 0 0 -2.66247e-16 -1.23793e-15 -0.22843 -3.18764e-18 -1.48211e-17 -0.000290838 -3.03765e-14 6.53321e-15 8.22493e-28 0.001415 
7873 1 -0.0162209 0.0354611 0.0136157 0 0 0 5.12496e-16 6.06203e-16 -0.22843 5.47044e-18 6.47067e-18 -0.000290838 -6.09438e-15 5.15231e-15 3.37862e-28 0.001415 
6847 1 -0.0500743 0.0395872 0.0137723 0 0 0 -1.19563e-15 5.15702e-16 -0.22843 -1.41866e-17 6.11899e-18 -0.000290838 1.89532e-14 4.39421e-14 -1.97565e-27 0.001415 
487 1 0.0121003 0.044013 0.0142188 0 0 0 8.1957e-16 -6.94666e-16 -0.22843 9.26206e-18 -7.85051e-18 -0.000290838 -8.41824e-15 -9.93187e-15 1.78748e-28 0.001415 
9747 1 -0.0328934 0.0446643 0.013989 0 0 0 2.11142e-16 -1.35983e-15 -0.22843 2.48077e-18 -1.5977e-17 -0.000290838 -1.935e-14 -3.00449e-15 6.06507e-29 0.001415 
8988 1 0.0105277 0.0515901 0.0144763 0 0 0 4.88638e-16 -6.91293e-16 -0.22843 6.29559e-18 -8.90658e-18 -0.000290838 -2.73349e-14 -1.93216e-14 -6.9689e-29 0.001415 
8315 1 0.0261215 0.0546907 0.0141853 0 0 0 -1.3272e-15 5.48703e-16 -0.22843 -1.59694e-17 6.6022e-18 -0.000290838 8.18717e-15 1.98031e-14 -4.19596e-29 0.001415 
6908 1 0.00786074 0.0601069 0.0147553 0 0 0 1.04252e-15 -6.28145e-16 -0.22843 1.23319e-17 -7.43028e-18 -0.000290838 -5.55704e-15 -9.2229e-15 1.02011e-27 0.001415 
6047 1 -2.16486e-05 0.0672713 0.013598 0 0 0 -1.32088e-15 -7.93744e-17 -0.22843 -1.47459e-17 -8.86114e-19 -0.000290838 -7.96025e-16 1.32467e-14 9.82752e-29 0.001415 
7455 1 0.00864732 0.0657086 0.0137443 0 0 0 -5.73529e-17 1.36007e-15 -0.22843 -6.98207e-19 1.65573e-17 -0.000290838 1.13841e-14 4.80059e-16 -3.85683e-29 0.001415 
8757 1 0.00829498 0.0765507 0.0131908 0 0 0 0 0 -0.22843 0 0 -0.000290838 0 0 0 0.001415 
3316 1 0.00670592 -0.0734672 0.015541 0 0 0 -9.97591e-16 3.19243e-16 -0.22843 6.46107e-18 -2.06763e-18 -0.000290838 -7.84353e-15 -2.45099e-14 -9.08764e-28 0.001415 
4538 1 0.0344028 -0.0660881 0.0164142 0 0 0 -4.15241e-16 8.08653e-16 -0.22843 -4.41508e-18 8.59808e-18 -0.000290838 4.33766e-15 2.22737e-15 2.7257e-28 0.001415 