ITEM: TIMESTEP
150000
ITEM: NUMBER OF ATOMS
10248
ITEM: BOX BOUNDS ff ff ff
-0.2 0.2
-0.2 0.2
-0.01 0.5
ITEM: ATOMS id type x y z ix iy iz vx vy vz fx fy fz omegax omegay omegaz radius 
168 1 0.0236637 -0.0379232 0.00141406 0 0 0 0.0315746 0.421443 0.00756882 0.00109605 0.0146296 0.00605973 -298.244 22.3445 3.12416e-12 0.001415 
5124 1 -0.00943529 -0.0647942 0.00236158 0 0 0 -1.07555e-17 -3.78589e-18 -0.22941 9.96491e-24 3.50762e-24 -0.000290837 2.43538e-16 -6.91875e-16 1.49151e-32 0.001415 
9891 1 -0.0536741 -0.00562861 0.00224605 0 0 0 7.12616e-18 -8.90046e-18 -0.22941 -6.60237e-24 8.24626e-24 -0.000290837 6.6293e-16 5.30775e-16 -2.89621e-31 0.001415 
8778 1 0.0127785 0.033873 0.00277036 0 0 0 -4.29729e-18 7.23218e-18 -0.22941 3.98143e-24 -6.7006e-24 -0.000290837 -4.43919e-16 -2.63773e-16 3.68618e-31 0.001415 
5123 1 -0.00890863 -0.0646088 0.00513595 0 0 0 9.81911e-18 3.4563e-18 -0.22941 -9.09738e-24 -3.20225e-24 -0.000290837 2.42088e-16 -6.87757e-16 1.77192e-32 0.001415 
167 1 0.0236239 -0.0384544 0.00419165 0 0 0 0.0220579 0.294419 -6.55094e-05 0.000619351 0.00826682 0.016482 387.794 -29.0536 1.5434e-11 0.001415 
5439 1 0.0255064 -0.015295 0.00463893 0 0 0 6.69732e-19 -1.27259e-18 -0.22941 -6.20505e-25 1.17905e-24 -0.000290837 -5.23887e-18 -2.75708e-18 2.22089e-33 0.001415 
9890 1 -0.0540531 -0.00515523 0.00501031 0 0 0 -6.21417e-18 7.76139e-18 -0.22941 5.75741e-24 -7.19091e-24 -0.000290837 6.56923e-16 5.25966e-16 -2.89941e-31 0.001415 
4096 1 0.0493328 0.0413049 0.00419094 0 0 0 1.34651e-17 -4.57845e-18 -0.22941 1.22711e-19 -4.17245e-20 -0.000290837 -5.2609e-16 -1.54722e-15 3.69677e-30 0.001415 
4641 1 -0.00200478 0.0474767 0.00486813 0 0 0 -2.10637e-18 1.13419e-18 -0.22941 1.95155e-24 -1.05082e-24 -0.000290837 5.34841e-18 9.93286e-18 -2.46525e-33 0.001415 
166 1 0.0235782 -0.0390645 0.00695297 0 0 0 -0.0106348 -0.141949 -0.0786497 -0.000739385 -0.00986897 0.0197229 -74.5049 5.58192 -1.31513e-11 0.001415 
8779 1 0.0136066 -0.0379801 0.00575972 0 0 0 1.14878e-19 5.24068e-20 -0.22941 -1.06434e-25 -4.85547e-26 -0.000290837 -4.078e-19 8.93918e-19 -5.00743e-34 0.001415 
6552 1 -0.00600865 -0.0297033 0.00637648 0 0 0 7.94137e-19 -1.28711e-19 -0.22941 -7.35766e-25 1.1925e-25 -0.000290837 -4.68459e-19 -2.89036e-18 -2.04087e-34 0.001415 
1407 1 0.0135434 -0.0200891 0.00706781 0 0 0 -6.8008e-19 -1.98959e-19 -0.22941 6.30092e-25 1.84335e-25 -0.000290837 -4.8004e-19 1.64087e-18 -6.54843e-34 0.001415 
4516 1 0.00201022 -0.00437069 0.0057964 0 0 0 -1.07228e-18 1.28009e-18 -0.22941 9.93466e-25 -1.186e-24 -0.000290837 4.69435e-18 3.93228e-18 -1.2481e-32 0.001415 
5818 1 0.0744051 0.00953964 0.00530585 0 0 0 2.36857e-19 -2.27659e-19 -0.22941 -2.19447e-25 2.10925e-25 -0.000290837 -2.53174e-19 -2.63403e-19 -1.71777e-34 0.001415 
6447 1 -0.0515136 0.0117203 0.00561879 0 0 0 -1.10172e-18 1.34215e-18 -0.22941 1.02074e-24 -1.2435e-24 -0.000290837 4.42224e-18 3.63004e-18 -1.38187e-32 0.001415 
4347 1 0.0446345 0.0124385 0.00637556 0 0 0 -7.28266e-19 -2.55971e-19 -0.22941 6.74737e-25 2.37157e-25 -0.000290837 -2.68494e-19 7.63894e-19 -3.25074e-35 0.001415 
9996 1 -0.0293411 0.0177597 0.00633022 0 0 0 -1.75253e-18 -1.67418e-18 -0.22941 1.62371e-24 1.55113e-24 -0.000290837 -7.58292e-18 7.93776e-18 1.07761e-32 0.001415 
1281 1 -0.00910888 0.0220965 0.0067448 0 0 0 -7.20023e-19 -2.66718e-19 -0.22941 6.671e-25 2.47114e-25 -0.000290837 -8.97948e-19 2.42407e-18 -9.39084e-34 0.001415 
4221 1 0.00751144 0.0235905 0.00568865 0 0 0 3.08431e-20 -2.2795e-19 -0.22941 -2.8576e-26 2.11195e-25 -0.000290837 4.14616e-19 5.61001e-20 1.08545e-34 0.001415 
3550 1 0.0375782 0.0284832 0.00644371 0 0 0 -1.0771e-18 6.30115e-18 -0.22941 9.97932e-25 -5.838e-24 -0.000290837 3.7125e-17 6.34606e-18 -1.16595e-32 0.001415 
2814 1 0.0624335 0.0274639 0.00574657 0 0 0 1.42412e-19 7.22586e-19 -0.22941 -1.31944e-25 -6.69475e-25 -0.000290837 1.17355e-18 -2.3129e-19 1.95761e-33 0.001415 
8777 1 0.0130109 0.0334818 0.00556355 0 0 0 4.09751e-18 -6.89596e-18 -0.22941 -3.79634e-24 6.38909e-24 -0.000290837 -4.43146e-16 -2.63313e-16 3.68497e-31 0.001415 
484 1 0.0153265 0.0412785 0.00683422 0 0 0 2.85373e-18 -2.41882e-18 -0.22941 -2.64397e-24 2.24103e-24 -0.000290837 -1.26407e-17 -1.49135e-17 1.11457e-32 0.001415 
4097 1 0.0483957 0.0416236 0.00684222 0 0 0 -1.20056e-17 4.08218e-18 -0.22941 -1.22713e-19 4.1725e-20 -0.000290837 -5.27611e-16 -1.5517e-15 3.6953e-30 0.001415 
7350 1 0.0388042 0.0484249 0.00707529 0 0 0 -4.44019e-21 -7.50877e-20 -0.22941 4.11383e-27 6.95685e-26 -0.000290837 2.59544e-19 -1.53477e-20 3.67243e-36 0.001415 
5122 1 -0.00838197 -0.0644234 0.00791033 0 0 0 1.23143e-19 4.3346e-20 -0.22941 -1.44556e-20 -5.08832e-21 -0.000290837 9.26924e-17 -2.63333e-16 -5.14563e-30 0.001415 
9219 1 -0.0350531 -0.0474779 0.00863395 0 0 0 0 0 -0.22941 0 0 -0.000290837 0 0 0 0.001415 
8295 1 0.0424827 -0.0477148 0.00890166 0 0 0 0 0 -0.22941 0 0 -0.000290837 0 0 0 0.001415 
8780 1 0.0123897 -0.0385353 0.00825366 0 0 0 2.98297e-17 1.36081e-17 -0.22941 2.82102e-19 1.28693e-19 -0.000290837 -2.5076e-15 5.49678e-15 -4.05712e-30 0.001415 
8589 1 -0.0402517 -0.0187189 0.00717478 0 0 0 5.78176e-20 -7.63559e-19 -0.22941 -5.35678e-26 7.07435e-25 -0.000290837 3.6326e-18 2.75065e-19 -1.53622e-32 0.001415 
5438 1 0.0249608 -0.0142584 0.0072151 0 0 0 1.57528e-16 -2.99327e-16 -0.22941 2.13476e-18 -4.05635e-18 -0.000290837 -4.36824e-15 -2.29889e-15 -8.5311e-30 0.001415 
2100 1 -0.012979 -0.0106864 0.00728242 0 0 0 3.5508e-16 6.44255e-17 -0.22941 4.73608e-18 8.59311e-19 -0.000290837 -1.03774e-15 5.71947e-15 4.46036e-29 0.001415 
9889 1 -0.0544321 -0.00468185 0.00777458 0 0 0 -6.22187e-19 7.77102e-19 -0.22941 9.34592e-20 -1.16729e-19 -0.000290837 -6.86947e-17 -5.50005e-17 -1.14285e-31 0.001415 
4517 1 0.00302288 -0.0055796 0.00814629 0 0 0 1.07228e-18 -1.28009e-18 -0.22941 -9.93466e-25 1.186e-24 -0.000290837 4.69435e-18 3.93228e-18 -1.2481e-32 0.001415 
7477 1 0.00556963 0.00632744 0.00801519 0 0 0 0 0 -0.22941 0 0 -0.000290837 0 0 0 0.001415 
6446 1 -0.0505093 0.0104969 0.00796474 0 0 0 -3.16898e-18 3.86056e-18 -0.22941 -4.13975e-20 5.04319e-20 -0.000290837 1.07327e-16 8.81003e-17 1.55226e-30 0.001415 
5819 1 0.0733204 0.0105822 0.00770279 0 0 0 -2.36822e-19 2.27626e-19 -0.22941 2.19415e-25 -2.10895e-25 -0.000290837 -2.38317e-19 -2.47945e-19 9.03014e-35 0.001415 
4368 1 0.0417993 0.0124877 0.0082436 0 0 0 0 0 -0.22941 0 0 -0.000290837 0 0 0 0.001415 
4346 1 0.0459771 0.0129104 0.00882173 0 0 0 -1.09962e-17 -3.86496e-18 -0.22941 -1.12411e-19 -3.95101e-20 -0.000290837 -3.9921e-16 1.1358e-15 -2.27554e-30 0.001415 
9995 1 -0.0283179 0.0187371 0.00878107 0 0 0 1.75253e-18 1.67418e-18 -0.22941 -1.62371e-24 -1.55113e-24 -0.000290837 -7.58292e-18 7.93776e-18 1.07761e-32 0.001415 
4220 1 0.00732219 0.0249892 0.00814156 0 0 0 1.73734e-18 -1.284e-17 -0.22941 1.8349e-20 -1.35611e-19 -0.000290837 -1.17882e-15 -1.59502e-16 1.35056e-30 0.001415 
2813 1 0.0621842 0.0261988 0.00826576 0 0 0 1.58172e-18 8.02553e-18 -0.22941 1.896e-20 9.62014e-20 -0.000290837 7.86666e-16 -1.55041e-16 6.57497e-31 0.001415 
3551 1 0.0378271 0.027027 0.00885747 0 0 0 1.0771e-18 -6.30115e-18 -0.22941 -9.97932e-25 5.838e-24 -0.000290837 3.7125e-17 6.34606e-18 -1.16595e-32 0.001415 
8776 1 0.0132433 0.0330907 0.00835673 0 0 0 -8.53809e-19 1.43693e-18 -0.22941 -1.19919e-20 2.01818e-20 -0.000290837 2.26864e-16 1.348e-16 8.8969e-31 0.001415 
3969 1 -0.0266131 0.0377733 0.00776204 0 0 0 -1.57105e-17 4.91497e-17 -0.22941 1.45557e-23 -4.55371e-23 -0.000290837 -5.68039e-15 -1.81571e-15 7.43068e-30 0.001415 
7875 1 -0.0151895 0.0366812 0.00816297 0 0 0 4.49663e-18 5.31881e-18 -0.22941 4.44758e-20 5.26079e-20 -0.000290837 6.88577e-16 -5.82137e-16 5.32907e-31 0.001415 
4640 1 -0.000842548 0.0468509 0.00737142 0 0 0 -4.19256e-16 2.25751e-16 -0.22941 -6.16154e-18 3.31772e-18 -0.000290837 -8.78735e-16 -1.63195e-15 5.28066e-30 0.001415 
5121 1 -0.0078553 -0.064238 0.0106847 0 0 0 -2.12494e-17 -7.47971e-18 -0.22941 -5.10023e-19 -1.79527e-19 -0.000290837 -1.81144e-16 5.14619e-16 1.22537e-28 0.001415 
6406 1 -0.013834 -0.0547628 0.00956206 0 0 0 1.67451e-17 -4.88186e-18 -0.22941 1.54237e-19 -4.4966e-20 -0.000290837 -4.29708e-16 -1.47393e-15 2.5792e-30 0.001415 
4747 1 -0.048396 -0.0516837 0.0103508 0 0 0 -5.00285e-17 7.31475e-18 -0.22941 -4.6651e-19 6.82092e-20 -0.000290837 -7.88889e-17 -5.39553e-16 -2.6195e-30 0.001415 
8904 1 0.00698378 -0.051284 0.00987022 0 0 0 0 0 -0.22941 0 0 -0.000290837 0 0 0 0.001415 
9218 1 -0.0344149 -0.0491301 0.0108412 0 0 0 -1.17928e-17 3.05253e-17 -0.22941 -1.83545e-19 4.751e-19 -0.000290837 -5.8313e-15 -2.2528e-15 -8.41833e-29 0.001415 
8781 1 0.0111727 -0.0390904 0.0107476 0 0 0 -1.88848e-17 -8.61515e-18 -0.22941 3.97094e-19 1.81152e-19 -0.000290837 -3.59784e-15 7.88664e-15 -2.81819e-29 0.001415 
165 1 0.0235434 -0.0395289 0.00974279 0 0 0 -0.00222974 -0.0297615 -0.0401139 -0.000409785 -0.00546962 0.0260626 -8.28568 0.620764 -1.80188e-11 0.001415 
6551 1 -0.00658842 -0.0296093 0.00914486 0 0 0 4.27886e-18 -6.93503e-19 -0.22941 4.6556e-20 -7.54563e-21 -0.000290837 -8.54492e-17 -5.27216e-16 2.1159e-31 0.001415 
9787 1 -0.0202299 -0.023698 0.00996001 0 0 0 -7.25695e-18 -9.02379e-18 -0.22941 -7.43382e-20 -9.24373e-20 -0.000290837 -5.64645e-16 4.54089e-16 -1.20862e-29 0.001415 
1406 1 0.0148736 -0.0197 0.00953523 0 0 0 6.8008e-19 1.98959e-19 -0.22941 -6.30092e-25 -1.84335e-25 -0.000290837 -4.8004e-19 1.64087e-18 -6.54843e-34 0.001415 
8588 1 -0.0403296 -0.0176897 0.00980984 0 0 0 6.63081e-18 -8.75688e-17 -0.22941 1.05155e-19 -1.38872e-18 -0.000290837 1.22073e-14 9.24354e-16 1.05117e-28 0.001415 
4389 1 -0.00210167 -0.0164576 0.0109443 0 0 0 1.34105e-17 -6.53747e-18 -0.22941 3.96746e-19 -1.93409e-19 -0.000290837 1.06373e-16 2.18206e-16 -3.88691e-29 0.001415 
8820 1 0.00980992 -0.0172644 0.0101376 0 0 0 0 0 -0.22941 0 0 -0.000290837 0 0 0 0.001415 
3529 1 0.0670132 -0.0166749 0.0104376 0 0 0 0 0 -0.22941 0 0 -0.000290837 0 0 0 0.001415 
4473 1 -0.0215554 -0.0144106 0.00991431 0 0 0 0 0 -0.22941 0 0 -0.000290837 0 0 0 0.001415 
5437 1 0.0244153 -0.0132218 0.00979128 0 0 0 -1.39228e-16 2.64555e-16 -0.22941 -1.77937e-18 3.38106e-18 -0.000290837 -3.48029e-16 -1.83159e-16 3.63102e-30 0.001415 
2099 1 -0.0146787 -0.0109948 0.009524 0 0 0 -3.38723e-16 -6.14576e-17 -0.22941 -4.25905e-18 -7.72758e-19 -0.000290837 -7.35312e-16 4.05267e-15 2.77776e-29 0.001415 
4518 1 0.00403554 -0.00678852 0.0104962 0 0 0 -3.18786e-17 3.80566e-17 -0.22941 -4.6171e-19 5.51189e-19 -0.000290837 -1.15746e-14 -9.69556e-15 -3.66547e-28 0.001415 
9888 1 -0.0548111 -0.00420847 0.0105388 0 0 0 1.22463e-17 -1.52954e-17 -0.22941 2.23593e-19 -2.79264e-19 -0.000290837 2.96726e-16 2.37574e-16 3.98278e-29 0.001415 
3528 1 0.0516347 -0.000942708 0.00922627 0 0 0 -1.86751e-17 -8.49341e-18 -0.22941 -1.712e-19 -7.78616e-20 -0.000290837 -8.60752e-16 1.8926e-15 -3.48211e-30 0.001415 
2457 1 0.0227749 0.00368251 0.00954925 0 0 0 0 0 -0.22941 0 0 -0.000290837 0 0 0 0.001415 
1470 1 -0.0541433 0.00552442 0.0107864 0 0 0 3.78557e-17 3.64798e-17 -0.22941 5.51525e-19 5.31479e-19 -0.000290837 -1.18302e-14 1.22764e-14 -1.29064e-28 0.001415 
7478 1 0.0063252 0.00556124 0.0106326 0 0 0 -6.36698e-18 6.45651e-18 -0.22941 -3.89975e-19 3.95459e-19 -0.000290837 -5.16214e-16 -5.09056e-16 -5.70924e-29 0.001415 
5545 1 -0.0302182 0.00727945 0.0109267 0 0 0 0 0 -0.22941 0 0 -0.000290837 0 0 0 0.001415 
6445 1 -0.0495051 0.00927345 0.0103107 0 0 0 -4.34336e-19 5.29124e-19 -0.22941 -1.30292e-20 1.58726e-20 -0.000290837 5.19337e-16 4.26303e-16 1.97853e-30 0.001415 
4431 1 -0.0620527 0.012605 0.0103052 0 0 0 -5.09147e-17 1.08765e-17 -0.22941 -7.18137e-19 1.5341e-19 -0.000290837 -2.519e-15 -1.17918e-14 -1.62406e-29 0.001415 
4367 1 0.0426483 0.0117219 0.0108324 0 0 0 -2.7352e-17 2.46735e-17 -0.22941 -6.93888e-19 6.25938e-19 -0.000290837 -3.22822e-15 -3.57867e-15 -6.17875e-29 0.001415 
5820 1 0.0722357 0.0116248 0.0100997 0 0 0 9.40322e-18 -9.03806e-18 -0.22941 8.63999e-20 -8.30447e-20 -0.000290837 -9.57798e-16 -9.96495e-16 -8.55706e-30 0.001415 
1280 1 -0.00826091 0.0224106 0.00942644 0 0 0 7.20023e-19 2.66718e-19 -0.22941 -6.671e-25 -2.47114e-25 -0.000290837 -8.97948e-19 2.42407e-18 -9.39084e-34 0.001415 
2812 1 0.0619348 0.0249338 0.0107849 0 0 0 7.33832e-18 3.7234e-17 -0.22941 2.02877e-19 1.02938e-18 -0.000290837 -5.22243e-15 1.02927e-15 -2.3682e-29 0.001415 
4219 1 0.00713294 0.0263879 0.0105945 0 0 0 4.91699e-18 -3.63397e-17 -0.22941 1.18714e-19 -8.7737e-19 -0.000290837 7.67882e-15 1.03899e-15 1.10484e-28 0.001415 
6216 1 -0.023401 0.0310553 0.0106639 0 0 0 -2.89959e-18 -1.34818e-17 -0.22941 -2.83055e-20 -1.31608e-19 -0.000290837 -9.19588e-16 1.9778e-16 3.03448e-30 0.001415 
3968 1 -0.0261983 0.0364757 0.0102426 0 0 0 1.57105e-17 -4.91497e-17 -0.22941 -1.45557e-23 4.55371e-23 -0.000290837 -5.68039e-15 -1.81571e-15 7.43068e-30 0.001415 
7874 1 -0.0157052 0.0360712 0.0108779 0 0 0 1.31007e-18 1.54961e-18 -0.22941 3.07863e-19 3.64154e-19 -0.000290837 3.82128e-16 -3.23059e-16 -6.37373e-29 0.001415 
9745 1 -0.0323504 0.0411674 0.00954888 0 0 0 0 0 -0.22941 0 0 -0.000290837 0 0 0 0.001415 
485 1 0.0142511 0.04219 0.00928811 0 0 0 -2.85373e-18 2.41882e-18 -0.22941 2.64397e-24 -2.24103e-24 -0.000290837 -1.26407e-17 -1.49135e-17 1.11457e-32 0.001415 
4098 1 0.0474587 0.0419422 0.0094935 0 0 0 2.45721e-18 -8.35507e-19 -0.22941 3.96247e-20 -1.34733e-20 -0.000290837 -7.04934e-17 -2.0732e-16 -4.83232e-31 0.001415 
4639 1 0.000319678 0.0462251 0.00987472 0 0 0 3.94215e-16 -2.12267e-16 -0.22941 5.57101e-18 -2.99975e-18 -0.000290837 6.33189e-16 1.17593e-15 4.83556e-29 0.001415 
7349 1 0.0388392 0.0490157 0.00984272 0 0 0 -1.4936e-18 -2.52582e-17 -0.22941 -2.985e-20 -5.0479e-19 -0.000290837 1.59359e-15 -9.42341e-17 -1.20127e-29 0.001415 
3318 1 0.0108764 -0.0748018 0.0119318 0 0 0 0 0 -0.22941 0 0 -0.000290837 0 0 0 0.001415 
6407 1 -0.0157638 -0.0542001 0.0115541 0 0 0 -1.67451e-17 4.88186e-18 -0.22941 -1.54237e-19 4.4966e-20 -0.000290837 -4.29708e-16 -1.47393e-15 2.5792e-30 0.001415 
4748 1 -0.0463698 -0.05198 0.0123042 0 0 0 6.49433e-18 -9.49545e-19 -0.22941 -3.89403e-19 5.69352e-20 -0.000290837 -3.22436e-15 -2.20527e-14 6.82983e-29 0.001415 
8903 1 0.00719176 -0.0530399 0.0120799 0 0 0 -4.98591e-18 4.20934e-17 -0.22941 -1.04367e-19 8.81114e-19 -0.000290837 -1.22942e-14 -1.45623e-15 9.35657e-29 0.001415 
8421 1 -0.0125515 -0.050364 0.0117573 0 0 0 3.28565e-18 -8.77335e-18 -0.22941 2.03223e-19 -5.42645e-19 -0.000290837 1.62597e-15 6.08932e-16 -1.79064e-28 0.001415 
5040 1 0.0412118 -0.051077 0.0113344 0 0 0 0 0 -0.22941 0 0 -0.000290837 0 0 0 0.001415 
8294 1 0.0417911 -0.0460756 0.0111025 0 0 0 0 0 -0.22941 0 0 -0.000290837 0 0 0 0.001415 
164 1 0.0235062 -0.040025 0.0125273 0 0 0 -0.00240308 -0.0320752 -0.0196113 -0.000323326 -0.00431561 0.0282933 7.38125 -0.553004 -1.87434e-11 0.001415 
7141 1 -0.0440609 -0.0300013 0.0122949 0 0 0 0 0 -0.22941 0 0 -0.000290837 0 0 0 0.001415 
6550 1 -0.00716818 -0.0295154 0.0119132 0 0 0 -5.073e-18 8.22214e-19 -0.22941 -4.65552e-20 7.54551e-21 -0.000290837 -8.49808e-17 -5.24325e-16 2.11794e-31 0.001415 
9788 1 -0.0191042 -0.0222982 0.0121469 0 0 0 -1.79186e-17 -2.22812e-17 -0.22941 -6.79172e-19 -8.44529e-19 -0.000290837 9.78415e-15 -7.86843e-15 4.77605e-28 0.001415 
1405 1 0.0162037 -0.0193109 0.0120026 0 0 0 -6.06994e-17 -1.77577e-17 -0.22941 -1.30965e-18 -3.83141e-19 -0.000290837 3.35339e-15 -1.14625e-14 -2.41841e-28 0.001415 
8819 1 0.00974619 -0.0192248 0.0121777 0 0 0 2.24902e-18 6.91728e-17 -0.22941 3.96651e-20 1.21997e-18 -0.000290837 -1.38191e-14 4.49303e-16 -8.45499e-29 0.001415 
8587 1 -0.0404076 -0.0166605 0.0124449 0 0 0 5.10772e-17 -6.74544e-16 -0.22941 3.74566e-19 -4.94665e-18 -0.000290837 -1.6108e-15 -1.21972e-16 -3.50411e-29 0.001415 
4472 1 -0.0211077 -0.0159411 0.0122523 0 0 0 -2.40685e-17 8.22731e-17 -0.22941 -3.87363e-19 1.32412e-18 -0.000290837 -1.85797e-14 -5.43539e-15 -1.96133e-28 0.001415 
5436 1 0.0238697 -0.0121851 0.0123675 0 0 0 2.74836e-18 -5.22229e-18 -0.22941 1.36264e-19 -2.58922e-19 -0.000290837 8.70498e-15 4.58121e-15 8.4474e-29 0.001415 
2098 1 -0.0163785 -0.0113032 0.0117656 0 0 0 -1.63577e-17 -2.96793e-18 -0.22941 -4.77038e-19 -8.65533e-20 -0.000290837 3.02423e-16 -1.6668e-15 -1.6826e-29 0.001415 
4519 1 0.0050482 -0.00799743 0.0128461 0 0 0 -4.45101e-16 5.31361e-16 -0.22941 -3.4855e-18 4.16099e-18 -0.000290837 1.75832e-16 1.47288e-16 8.40819e-28 0.001415 
3527 1 0.053278 -0.000195356 0.0114057 0 0 0 1.86751e-17 8.49341e-18 -0.22941 1.712e-19 7.78616e-20 -0.000290837 -8.60752e-16 1.8926e-15 -3.48211e-30 0.001415 
4852 1 -0.0576017 0.00160357 0.0121667 0 0 0 2.20934e-17 3.62506e-17 -0.22941 4.56279e-19 7.48658e-19 -0.000290837 -7.71559e-15 4.70237e-15 1.19204e-28 0.001415 
2456 1 0.0231999 0.00341526 0.0123344 0 0 0 -2.80119e-16 1.7616e-16 -0.22941 -1.91335e-18 1.20325e-18 -0.000290837 1.4761e-15 2.34722e-15 -6.75905e-29 0.001415 
6444 1 -0.0485008 0.00805 0.0126567 0 0 0 -3.16136e-17 3.85128e-17 -0.22941 -8.0062e-19 9.75343e-19 -0.000290837 -1.07254e-14 -8.80406e-15 -5.96769e-28 0.001415 
7897 1 0.0202104 0.0106666 0.0125095 0 0 0 1.17023e-17 5.57802e-17 -0.22941 2.20538e-19 1.05122e-18 -0.000290837 -1.58093e-14 3.31667e-15 -1.85216e-29 0.001415 
4430 1 -0.0607358 0.0123237 0.0127943 0 0 0 -6.69671e-16 1.43057e-16 -0.22941 -4.64849e-18 9.93022e-19 -0.000290837 6.0107e-16 2.8137e-15 -6.90132e-29 0.001415 
4345 1 0.0473197 0.0133822 0.0112679 0 0 0 3.61421e-19 1.27032e-19 -0.22941 -5.87414e-19 -2.06464e-19 -0.000290837 5.5174e-16 -1.56976e-15 -4.36716e-29 0.001415 
5821 1 0.071151 0.0126674 0.0124967 0 0 0 -9.40325e-18 9.03809e-18 -0.22941 -8.63999e-20 8.30447e-20 -0.000290837 -9.57812e-16 -9.9651e-16 -8.55733e-30 0.001415 
9994 1 -0.0272948 0.0197145 0.0112319 0 0 0 -4.41279e-17 -4.21553e-17 -0.22941 -9.53934e-19 -9.1129e-19 -0.000290837 9.00017e-15 -9.42133e-15 1.44713e-28 0.001415 
1279 1 -0.00741294 0.0227247 0.0121081 0 0 0 -4.79872e-17 -1.77759e-17 -0.22941 -9.24501e-19 -3.42463e-19 -0.000290837 8.74093e-16 -2.35967e-15 -5.5426e-29 0.001415 
3552 1 0.038076 0.0255707 0.0112712 0 0 0 -4.65472e-18 2.72305e-17 -0.22941 -1.37037e-19 8.01677e-19 -0.000290837 -7.03954e-15 -1.20332e-15 1.1942e-28 0.001415 
9955 1 0.0480973 0.0295036 0.0115666 0 0 0 0 0 -0.22941 0 0 -0.000290837 0 0 0 0.001415 
6215 1 -0.0229502 0.0331509 0.0125116 0 0 0 -4.38811e-18 -2.04028e-17 -0.22941 -1.28641e-19 -5.98124e-19 -0.000290837 1.59426e-14 -3.42883e-15 -1.18913e-28 0.001415 
8775 1 0.0134757 0.0326995 0.0111499 0 0 0 -4.78567e-18 8.0541e-18 -0.22941 -1.60214e-19 2.69634e-19 -0.000290837 -1.06225e-16 -6.31177e-17 1.36259e-29 0.001415 
3967 1 -0.0257836 0.0351781 0.0127231 0 0 0 -2.4083e-16 7.53429e-16 -0.22941 -1.71652e-18 5.37009e-18 -0.000290837 4.57183e-15 1.46136e-15 -2.87128e-28 0.001415 
4099 1 0.0465216 0.0422608 0.0121448 0 0 0 2.72544e-18 -9.2671e-19 -0.22941 3.68421e-19 -1.25271e-19 -0.000290837 -4.35188e-18 -1.27988e-17 -1.89293e-29 0.001415 
9746 1 -0.0326219 0.0429159 0.0117575 0 0 0 7.5601e-18 -4.86898e-17 -0.22941 1.52074e-19 -9.79412e-19 -0.000290837 1.34745e-14 2.0922e-15 -9.01932e-29 0.001415 
486 1 0.0131757 0.0431015 0.011742 0 0 0 5.76328e-17 -4.88495e-17 -0.22941 1.0446e-18 -8.85398e-19 -0.000290837 1.21854e-14 1.43763e-14 -7.04911e-29 0.001415 
4638 1 0.00148191 0.0455993 0.012378 0 0 0 2.00141e-18 -1.07767e-18 -0.22941 -1.81499e-19 9.77294e-20 -0.000290837 -1.49236e-15 -2.77156e-15 2.12305e-28 0.001415 
7348 1 0.0388741 0.0496065 0.0126101 0 0 0 -2.89531e-17 -4.89623e-16 -0.22941 -2.3458e-19 -3.96696e-18 -0.000290837 7.05346e-15 -4.17095e-16 4.16227e-31 0.001415 
8316 1 0.0241447 0.055508 0.0123096 0 0 0 0 0 -0.22941 0 0 -0.000290837 0 0 0 0.001415 
4831 1 0.0293284 0.0560787 0.0127789 0 0 0 7.48354e-16 -4.16004e-16 -0.22941 5.81194e-18 -3.23081e-18 -0.000290837 -1.09879e-14 -1.97663e-14 -8.75063e-28 0.001415 
6909 1 0.00964204 0.0590336 0.012813 0 0 0 1.31167e-16 -7.90317e-17 -0.22941 1.82158e-18 -1.09755e-18 -0.000290837 1.93437e-14 3.21043e-14 -7.71378e-28 0.001415 
6048 1 -0.0014895 0.0671831 0.0111572 0 0 0 -5.01508e-17 -3.01367e-18 -0.22941 -1.17862e-18 -7.08259e-20 -0.000290837 5.64783e-16 -9.39861e-15 -4.81269e-29 0.001415 
3317 1 0.00879117 -0.0741345 0.013725 0 0 0 1.15662e-15 -3.70136e-16 -0.22941 2.75632e-18 -8.8206e-19 -0.000290837 -1.03956e-14 -3.24848e-14 -1.30346e-27 0.001415 
4537 1 0.0348065 -0.0668743 0.0137029 0 0 0 4.42805e-16 -8.62332e-16 -0.22941 3.05959e-18 -5.95835e-18 -0.000290837 7.4229e-15 3.81163e-15 2.64242e-29 0.001415 
5120 1 -0.00732864 -0.0640527 0.0134591 0 0 0 -5.38921e-16 -1.89698e-16 -0.22941 -3.28121e-18 -1.15497e-18 -0.000290837 2.09964e-15 -5.96493e-15 1.52326e-28 0.001415 
8902 1 0.00739974 -0.0547957 0.0142896 0 0 0 -1.67761e-16 1.41631e-15 -0.22941 -1.21973e-18 1.02975e-17 -0.000290837 1.70522e-14 2.01981e-15 -3.66899e-30 0.001415 
4749 1 -0.0443437 -0.0522762 0.0142577 0 0 0 -1.10355e-15 1.61351e-16 -0.22941 -7.84449e-18 1.14695e-18 -0.000290837 4.64738e-15 3.17853e-14 -1.14052e-28 0.001415 
6408 1 -0.0176936 -0.0536375 0.0135462 0 0 0 1.61293e-15 -4.70231e-16 -0.22941 2.79233e-17 -8.14074e-18 -0.000290837 -8.22132e-15 -2.81997e-14 -9.69359e-28 0.001415 
9217 1 -0.0337766 -0.0507822 0.0130484 0 0 0 -2.82507e-16 7.3126e-16 -0.22941 -1.87244e-18 4.84677e-18 -0.000290837 5.78908e-16 2.23649e-16 8.86757e-28 0.001415 
5039 1 0.0393096 -0.0515993 0.0133637 0 0 0 1.20566e-15 3.3105e-16 -0.22941 1.24052e-17 3.40622e-18 -0.000290837 4.54651e-15 -1.65581e-14 1.01479e-27 0.001415 
8420 1 -0.0130316 -0.0490822 0.0142343 0 0 0 4.61084e-16 -1.23119e-15 -0.22941 3.15852e-18 -8.43388e-18 -0.000290837 -1.00865e-14 -3.77742e-15 1.24984e-27 0.001415 
8293 1 0.0410995 -0.0444363 0.0133033 0 0 0 5.38302e-16 -1.27588e-15 -0.22941 3.6297e-18 -8.60307e-18 -0.000290837 -4.1331e-14 -1.74379e-14 7.82164e-28 0.001415 
8782 1 0.00995582 -0.0396456 0.0132416 0 0 0 1.05944e-15 4.83311e-16 -0.22941 6.97491e-18 3.18191e-18 -0.000290837 1.16431e-14 -2.55222e-14 -7.74765e-28 0.001415 
1765 1 -0.00582286 -0.0341936 0.0139964 0 0 0 1.22059e-15 -3.81968e-16 -0.22941 9.59317e-18 -3.00207e-18 -0.000290837 -1.33522e-14 -4.26671e-14 4.61181e-28 0.001415 
7142 1 -0.0430179 -0.0310366 0.0147135 0 0 0 -9.35513e-16 9.28589e-16 -0.22941 -6.7629e-18 6.71285e-18 -0.000290837 2.07453e-14 2.08999e-14 2.1723e-29 0.001415 
6549 1 -0.00774795 -0.0294214 0.0146816 0 0 0 6.39093e-16 -1.03582e-16 -0.22941 4.40473e-18 -7.13903e-19 -0.000290837 6.38097e-16 3.93701e-15 6.62092e-29 0.001415 
2898 1 -0.0015393 -0.0260351 0.0142686 0 0 0 8.21322e-16 -1.62137e-16 -0.22941 5.66536e-18 -1.1184e-18 -0.000290837 -5.11528e-16 -2.5912e-15 -5.01325e-29 0.001415 
1113 1 0.057839 -0.0250229 0.0131252 0 0 0 1.19225e-15 6.11679e-16 -0.22941 1.35884e-17 6.97146e-18 -0.000290837 7.78698e-15 -1.5178e-14 3.69123e-28 0.001415 
2604 1 -0.0264828 -0.0239558 0.0139931 0 0 0 1.24274e-15 -5.41083e-17 -0.22941 1.50599e-17 -6.55702e-19 -0.000290837 -1.91508e-15 -4.3985e-14 -6.5819e-29 0.001415 
7959 1 -0.0480224 -0.0227988 0.0146751 0 0 0 -1.27917e-15 7.97855e-16 -0.22941 -9.99274e-18 6.23273e-18 -0.000290837 1.92493e-14 3.08617e-14 1.90743e-27 0.001415 
8818 1 0.00968245 -0.0211851 0.0142178 0 0 0 4.35958e-17 1.34087e-15 -0.22941 3.18223e-19 9.78754e-18 -0.000290837 1.33891e-14 -4.35322e-16 -2.60407e-29 0.001415 
9789 1 -0.0179785 -0.0208985 0.0143338 0 0 0 -9.75595e-16 -1.21312e-15 -0.22941 -6.68906e-18 -8.31764e-18 -0.000290837 -2.53119e-14 2.03559e-14 -3.17985e-28 0.001415 
4471 1 -0.0206599 -0.0174716 0.0145902 0 0 0 -3.30909e-16 1.13114e-15 -0.22941 -2.28863e-18 7.8232e-18 -0.000290837 7.59152e-15 2.22086e-15 2.5978e-29 0.001415 
1404 1 0.0175339 -0.0189217 0.0144701 0 0 0 -1.17712e-15 -3.44368e-16 -0.22941 -7.59801e-18 -2.22281e-18 -0.000290837 -2.97145e-15 1.0157e-14 6.0826e-28 0.001415 
3530 1 0.0663652 -0.0174708 0.0130749 0 0 0 7.66662e-16 9.41613e-16 -0.22941 5.30873e-18 6.52017e-18 -0.000290837 5.40946e-15 -4.40439e-15 -1.0209e-27 0.001415 
4388 1 -0.00265555 -0.0161876 0.0137064 0 0 0 5.55808e-16 -2.7095e-16 -0.22941 3.46204e-18 -1.68771e-18 -0.000290837 1.93208e-15 3.96334e-15 5.71633e-29 0.001415 
2097 1 -0.0180782 -0.0116116 0.0140072 0 0 0 1.42195e-15 2.57998e-16 -0.22941 1.02303e-17 1.85618e-18 -0.000290837 6.78209e-15 -3.73794e-14 -9.70088e-28 0.001415 
9887 1 -0.0551901 -0.00373509 0.0133031 0 0 0 3.87089e-16 -4.83468e-16 -0.22941 2.37945e-18 -2.97189e-18 -0.000290837 5.33904e-15 4.27471e-15 -2.56451e-29 0.001415 
4853 1 -0.0586257 -7.65915e-05 0.0142008 0 0 0 7.34164e-16 1.20461e-15 -0.22941 5.29659e-18 8.69058e-18 -0.000290837 9.17023e-15 -5.58892e-15 -9.68806e-28 0.001415 
9743 1 -0.0492029 -0.00049722 0.014706 0 0 0 6.4319e-16 7.32647e-16 -0.22941 4.6968e-18 5.35005e-18 -0.000290837 2.47325e-14 -2.17126e-14 1.02351e-27 0.001415 
9744 1 -0.0476714 0.00124731 0.0130873 0 0 0 1.29662e-17 1.47696e-17 -0.22941 2.94661e-19 3.35643e-19 -0.000290837 -6.12553e-15 5.3776e-15 -1.17833e-28 0.001415 
3403 1 0.0399954 0.00144601 0.0132223 0 0 0 -1.06578e-15 5.0435e-17 -0.22941 -1.08792e-17 5.14829e-19 -0.000290837 8.93084e-16 1.88724e-14 -1.27247e-28 0.001415 
3526 1 0.0549212 0.000551996 0.0135852 0 0 0 -1.41589e-15 -6.43948e-16 -0.22941 -1.05596e-17 -4.80251e-18 -0.000290837 -1.79183e-14 3.93983e-14 -1.33945e-27 0.001415 
3843 1 -0.0432547 0.00201405 0.0138078 0 0 0 1.16856e-15 7.96214e-16 -0.22941 8.77701e-18 5.98033e-18 -0.000290837 1.27715e-14 -1.87441e-14 1.45888e-27 0.001415 
6238 1 0.0476834 0.00358837 0.0133433 0 0 0 1.4179e-15 -9.12299e-16 -0.22941 1.28731e-17 -8.28279e-18 -0.000290837 -1.79629e-14 -2.79179e-14 7.269e-28 0.001415 
1469 1 -0.0554428 0.00427207 0.0129662 0 0 0 5.84388e-16 5.63148e-16 -0.22941 4.18916e-18 4.0369e-18 -0.000290837 8.71593e-15 -9.04467e-15 -1.50737e-28 0.001415 
7479 1 0.00708078 0.00479504 0.01325 0 0 0 -7.30727e-16 7.41003e-16 -0.22941 -4.61054e-18 4.67537e-18 -0.000290837 1.84903e-15 1.82339e-15 4.58041e-28 0.001415 
5546 1 -0.0286421 0.00814112 0.0131136 0 0 0 -1.01635e-15 -5.55653e-16 -0.22941 -8.1179e-18 -4.43818e-18 -0.000290837 -1.44239e-14 2.63829e-14 -2.05309e-27 0.001415 
7898 1 0.0197791 0.00861083 0.014406 0 0 0 2.8039e-16 1.33651e-15 -0.22941 2.02636e-18 9.65884e-18 -0.000290837 2.7448e-14 -5.75839e-15 -4.03015e-28 0.001415 
4366 1 0.0434972 0.010956 0.0134211 0 0 0 -8.1509e-16 7.3527e-16 -0.22941 -5.03112e-18 4.53843e-18 -0.000290837 4.14104e-15 4.59058e-15 -1.41708e-28 0.001415 
1176 1 0.023371 0.01534 0.0144075 0 0 0 1.72998e-17 1.46589e-15 -0.22941 1.2745e-19 1.07994e-17 -0.000290837 1.92056e-14 -2.26657e-16 -3.37623e-30 0.001415 
4344 1 0.0486622 0.0138541 0.0137141 0 0 0 -1.28506e-15 -4.51674e-16 -0.22941 -8.70785e-18 -3.06064e-18 -0.000290837 -4.65241e-15 1.32366e-14 7.86424e-28 0.001415 
5629 1 -0.00809486 0.0186934 0.0135874 0 0 0 1.1811e-15 2.06617e-17 -0.22941 1.3498e-17 2.36129e-19 -0.000290837 7.68669e-16 -4.394e-14 1.3946e-28 0.001415 
9993 1 -0.0262716 0.020692 0.0136828 0 0 0 -8.22319e-16 -7.85559e-16 -0.22941 -5.2323e-18 -4.9984e-18 -0.000290837 -1.54287e-14 1.61506e-14 9.42031e-28 0.001415 
3553 1 0.038325 0.0241144 0.013685 0 0 0 -1.95048e-16 1.14105e-15 -0.22941 -1.28404e-18 7.51173e-18 -0.000290837 1.76346e-14 3.01442e-15 3.29294e-28 0.001415 
2811 1 0.0616855 0.0236687 0.0133041 0 0 0 2.44445e-16 1.24029e-15 -0.22941 1.62194e-18 8.22957e-18 -0.000290837 4.97193e-15 -9.799e-16 -2.95565e-28 0.001415 
4218 1 0.00694369 0.0277865 0.0130474 0 0 0 1.39109e-16 -1.02811e-15 -0.22941 6.53308e-19 -4.82837e-18 -0.000290837 -1.8971e-14 -2.56689e-15 1.07529e-28 0.001415 
9956 1 0.047731 0.0274693 0.0134996 0 0 0 2.32965e-16 1.29384e-15 -0.22941 2.7493e-18 1.5269e-17 -0.000290837 1.59155e-14 -2.86571e-15 -5.60373e-29 0.001415 
6007 1 0.0347873 0.0296881 0.0132695 0 0 0 3.74349e-16 4.19448e-16 -0.22941 2.50499e-18 2.80677e-18 -0.000290837 -2.08882e-15 1.86422e-15 3.04184e-29 0.001415 
8774 1 0.0137081 0.0323084 0.0139431 0 0 0 -2.41977e-16 4.07239e-16 -0.22941 -1.50292e-18 2.52936e-18 -0.000290837 -4.45669e-15 -2.64812e-15 -2.47009e-29 0.001415 
6214 1 -0.0224995 0.0352466 0.0143594 0 0 0 -2.76771e-16 -1.28687e-15 -0.22941 -2.00479e-18 -9.3214e-18 -0.000290837 -3.2441e-14 6.97722e-15 9.24045e-28 0.001415 
7873 1 -0.0162209 0.0354611 0.0135928 0 0 0 5.3066e-16 6.27687e-16 -0.22941 3.27485e-18 3.87364e-18 -0.000290837 -6.5331e-15 5.52321e-15 3.87413e-28 0.001415 
6847 1 -0.0500743 0.0395872 0.0137495 0 0 0 -1.24324e-15 5.36236e-16 -0.22941 -1.40614e-17 6.06498e-18 -0.000290837 2.02454e-14 4.69379e-14 -2.15636e-27 0.001415 
487 1 0.0121003 0.044013 0.0141959 0 0 0 8.50449e-16 -7.2084e-16 -0.22941 5.48573e-18 -4.6497e-18 -0.000290837 -8.94606e-15 -1.05546e-14 2.29371e-28 0.001415 
9747 1 -0.0328934 0.0446643 0.0139662 0 0 0 2.19374e-16 -1.41284e-15 -0.22941 1.58708e-18 -1.02214e-17 -0.000290837 -2.08065e-14 -3.23065e-15 9.82992e-29 0.001415 
8988 1 0.0105277 0.0515901 0.0144534 0 0 0 5.09579e-16 -7.20918e-16 -0.22941 3.79155e-18 -5.36403e-18 -0.000290837 -2.85817e-14 -2.02029e-14 -7.88024e-29 0.001415 
8315 1 0.0261215 0.0546907 0.0141625 0 0 0 -1.37998e-15 5.70524e-16 -0.22941 -1.06061e-17 4.38485e-18 -0.000290837 8.76996e-15 2.12128e-14 -2.00371e-28 0.001415 
6908 1 0.00786074 0.0601069 0.0147324 0 0 0 1.0834e-15 -6.52779e-16 -0.22941 7.51864e-18 -4.53018e-18 -0.000290837 -6.08581e-15 -1.01005e-14 1.16735e-27 0.001415 
6047 1 -2.16486e-05 0.0672713 0.0135751 0 0 0 -1.36972e-15 -8.23095e-17 -0.22941 -9.1326e-18 -5.48798e-19 -0.000290837 -8.42766e-16 1.40245e-14 1.10142e-28 0.001415 
7455 1 0.00864732 0.0657086 0.0137215 0 0 0 -5.96735e-17 1.4151e-15 -0.22941 -4.62106e-19 1.09584e-17 -0.000290837 1.25025e-14 5.27222e-16 -4.30062e-29 0.001415 
8757 1 0.00829498 0.0765507 0.013168 0 0 0 0 0 -0.22941 0 0 -0.000290837 0 0 0 0.001415 
3316 1 0.00670592 -0.0734672 0.0155181 0 0 0 -9.75996e-16 3.12332e-16 -0.22941 2.64423e-18 -8.4619e-19 -0.000290837 -7.89338e-15 -2.46657e-14 -8.52414e-28 0.001415 
4538 1 0.0344028 -0.0660881 0.0163914 0 0 0 -4.29942e-16 8.37283e-16 -0.22941 -2.71192e-18 5.28128e-18 -0.000290837 4.92452e-15 2.52872e-15 3.17102e-28 0.001415 