ITEM: TIMESTEP
130000
ITEM: NUMBER OF ATOMS
10248
ITEM: BOX BOUNDS ff ff ff
-0.2 0.2
-0.2 0.2
-0.01 0.5
ITEM: ATOMS id type x y z ix iy iz vx vy vz fx fy fz omegax omegay omegaz radius 
168 1 0.0236556 -0.0380305 0.00141348 0 0 0 0.00712694 0.0951272 0.000883264 0.0021055 0.0281032 0.000327146 -67.3047 5.04248 -2.36496e-12 0.001415 
5124 1 -0.00943529 -0.0647942 0.00245256 0 0 0 -1.07556e-17 -3.78594e-18 -0.225489 9.88346e-24 3.47895e-24 -0.000290842 2.43543e-16 -6.9189e-16 1.49154e-32 0.001415 
9891 1 -0.0536741 -0.00562861 0.00233703 0 0 0 7.12625e-18 -8.90057e-18 -0.225489 -6.5484e-24 8.17885e-24 -0.000290842 6.62944e-16 5.30787e-16 -2.89627e-31 0.001415 
8778 1 0.0127785 0.033873 0.00286134 0 0 0 -4.29734e-18 7.23227e-18 -0.225489 3.94889e-24 -6.64583e-24 -0.000290842 -4.43929e-16 -2.63778e-16 3.68626e-31 0.001415 
5123 1 -0.00890863 -0.0646088 0.00522693 0 0 0 9.81923e-18 3.45634e-18 -0.225489 -9.02302e-24 -3.17607e-24 -0.000290842 2.42094e-16 -6.87772e-16 1.77196e-32 0.001415 
167 1 0.0236184 -0.0385275 0.00419621 0 0 0 0.00378405 0.0505078 -0.00514169 0.00164533 0.0219611 -0.00137129 99.1757 -7.43026 3.85322e-12 0.001415 
5439 1 0.0255064 -0.015295 0.00472991 0 0 0 6.6974e-19 -1.27261e-18 -0.225489 -6.15433e-25 1.16941e-24 -0.000290842 -5.23898e-18 -2.75714e-18 2.22094e-33 0.001415 
9890 1 -0.0540531 -0.00515523 0.00510129 0 0 0 -6.21424e-18 7.76149e-18 -0.225489 5.71035e-24 -7.13213e-24 -0.000290842 6.56937e-16 5.25977e-16 -2.89947e-31 0.001415 
4096 1 0.0493328 0.0413049 0.00428192 0 0 0 1.17918e-17 -4.00947e-18 -0.225489 1.25524e-19 -4.2681e-20 -0.000290842 -3.86192e-16 -1.13579e-15 2.52871e-30 0.001415 
4641 1 -0.00200478 0.0474767 0.00495911 0 0 0 -2.1064e-18 1.1342e-18 -0.225489 1.9356e-24 -1.04224e-24 -0.000290842 5.34853e-18 9.93307e-18 -2.4653e-33 0.001415 
166 1 0.023581 -0.039027 0.00697846 0 0 0 -0.00426352 -0.0569075 -0.0228626 -0.000342431 -0.00457061 -0.00530278 -22.2082 1.66384 -9.16197e-13 0.001415 
8779 1 0.0136066 -0.0379801 0.0058507 0 0 0 1.1488e-19 5.24074e-20 -0.225489 -1.05564e-25 -4.81579e-26 -0.000290842 -4.07809e-19 8.93938e-19 -5.00754e-34 0.001415 
6552 1 -0.00600865 -0.0297033 0.00646746 0 0 0 7.94147e-19 -1.28713e-19 -0.225489 -7.29752e-25 1.18276e-25 -0.000290842 -4.68469e-19 -2.89042e-18 -2.04092e-34 0.001415 
1407 1 0.0135434 -0.0200891 0.00715879 0 0 0 -6.80088e-19 -1.98961e-19 -0.225489 6.24942e-25 1.82828e-25 -0.000290842 -4.80051e-19 1.64091e-18 -6.54857e-34 0.001415 
4516 1 0.00201022 -0.00437069 0.00588738 0 0 0 -1.07229e-18 1.2801e-18 -0.225489 9.85346e-25 -1.1763e-24 -0.000290842 4.69445e-18 3.93237e-18 -1.24813e-32 0.001415 
5818 1 0.0744051 0.00953964 0.00539683 0 0 0 2.3686e-19 -2.27662e-19 -0.225489 -2.17653e-25 2.09201e-25 -0.000290842 -2.5318e-19 -2.63409e-19 -1.71781e-34 0.001415 
6447 1 -0.0515136 0.0117203 0.00570977 0 0 0 -1.10173e-18 1.34217e-18 -0.225489 1.0124e-24 -1.23333e-24 -0.000290842 4.42233e-18 3.63012e-18 -1.3819e-32 0.001415 
4347 1 0.0446345 0.0124385 0.00646654 0 0 0 -7.28275e-19 -2.55974e-19 -0.225489 6.69222e-25 2.35218e-25 -0.000290842 -2.68499e-19 7.6391e-19 -3.25081e-35 0.001415 
9996 1 -0.0293411 0.0177597 0.0064212 0 0 0 -1.75255e-18 -1.6742e-18 -0.225489 1.61044e-24 1.53845e-24 -0.000290842 -7.58308e-18 7.93793e-18 1.07764e-32 0.001415 
1281 1 -0.00910888 0.0220965 0.00683578 0 0 0 -7.20032e-19 -2.66721e-19 -0.225489 6.61647e-25 2.45094e-25 -0.000290842 -8.97968e-19 2.42412e-18 -9.39104e-34 0.001415 
4221 1 0.00751144 0.0235905 0.00577963 0 0 0 3.08434e-20 -2.27953e-19 -0.225489 -2.83424e-26 2.09469e-25 -0.000290842 4.14625e-19 5.61013e-20 1.08548e-34 0.001415 
3550 1 0.0375782 0.0284832 0.00653469 0 0 0 -1.07712e-18 6.30123e-18 -0.225489 9.89775e-25 -5.79028e-24 -0.000290842 3.71258e-17 6.34619e-18 -1.16597e-32 0.001415 
2814 1 0.0624335 0.0274639 0.00583755 0 0 0 1.42414e-19 7.22595e-19 -0.225489 -1.30866e-25 -6.64002e-25 -0.000290842 1.17357e-18 -2.31295e-19 1.95765e-33 0.001415 
8777 1 0.0130109 0.0334818 0.00565453 0 0 0 4.09756e-18 -6.89605e-18 -0.225489 -3.7653e-24 6.33687e-24 -0.000290842 -4.43156e-16 -2.63319e-16 3.68505e-31 0.001415 
484 1 0.0153265 0.0412785 0.0069252 0 0 0 2.85376e-18 -2.41885e-18 -0.225489 -2.62236e-24 2.22271e-24 -0.000290842 -1.2641e-17 -1.49139e-17 1.11459e-32 0.001415 
4097 1 0.0483957 0.0416236 0.0069332 0 0 0 -1.03323e-17 3.5132e-18 -0.225489 -1.25525e-19 4.26814e-20 -0.000290842 -3.87713e-16 -1.14026e-15 2.52724e-30 0.001415 
7350 1 0.0388042 0.0484249 0.00716627 0 0 0 -4.44025e-21 -7.50886e-20 -0.225489 4.0802e-27 6.89999e-26 -0.000290842 2.59549e-19 -1.5348e-20 3.67251e-36 0.001415 
5122 1 -0.00838197 -0.0644234 0.00800131 0 0 0 2.98183e-19 1.0496e-19 -0.225489 -1.14575e-20 -4.033e-21 -0.000290842 1.07897e-16 -3.06529e-16 -3.35644e-30 0.001415 
9219 1 -0.0350531 -0.0474779 0.00872493 0 0 0 0 0 -0.225489 0 0 -0.000290842 0 0 0 0.001415 
8295 1 0.0424827 -0.0477148 0.00899264 0 0 0 0 0 -0.225489 0 0 -0.000290842 0 0 0 0.001415 
8780 1 0.0123897 -0.0385353 0.00834464 0 0 0 2.60217e-17 1.1871e-17 -0.225489 2.83242e-19 1.29213e-19 -0.000290842 -2.21905e-15 4.86427e-15 -5.45593e-31 0.001415 
8589 1 -0.0402517 -0.0187189 0.00726576 0 0 0 5.78183e-20 -7.63568e-19 -0.225489 -5.313e-26 7.01653e-25 -0.000290842 3.63268e-18 2.75071e-19 -1.53625e-32 0.001415 
5438 1 0.0249608 -0.0142584 0.00730608 0 0 0 1.25116e-16 -2.37739e-16 -0.225489 3.37508e-18 -6.41315e-18 -0.000290842 -3.03084e-15 -1.59505e-15 -1.19629e-29 0.001415 
2100 1 -0.012979 -0.0106864 0.0073734 0 0 0 2.83505e-16 5.14389e-17 -0.225489 7.65593e-18 1.38908e-18 -0.000290842 -6.55617e-16 3.61342e-15 1.18455e-29 0.001415 
9889 1 -0.0544321 -0.00468185 0.00786556 0 0 0 -9.12007e-19 1.13908e-18 -0.225489 8.38055e-25 -1.04672e-24 -0.000290842 -6.00704e-18 -4.80954e-18 -3.20196e-34 0.001415 
4517 1 0.00302288 -0.0055796 0.00823727 0 0 0 1.07229e-18 -1.2801e-18 -0.225489 -9.85346e-25 1.1763e-24 -0.000290842 4.69445e-18 3.93237e-18 -1.24813e-32 0.001415 
7477 1 0.00556963 0.00632744 0.00810617 0 0 0 0 0 -0.225489 0 0 -0.000290842 0 0 0 0.001415 
6446 1 -0.0505093 0.0104969 0.00805572 0 0 0 -2.61057e-18 3.18028e-18 -0.225489 -4.14781e-20 5.053e-20 -0.000290842 7.46951e-17 6.13142e-17 1.14487e-30 0.001415 
5819 1 0.0733204 0.0105822 0.00779377 0 0 0 -2.36825e-19 2.27629e-19 -0.225489 2.17622e-25 -2.09171e-25 -0.000290842 -2.38322e-19 -2.4795e-19 9.03034e-35 0.001415 
4368 1 0.0417993 0.0124877 0.00833458 0 0 0 0 0 -0.225489 0 0 -0.000290842 0 0 0 0.001415 
4346 1 0.0459771 0.0129104 0.00891271 0 0 0 -9.49561e-18 -3.33752e-18 -0.225489 -1.10619e-19 -3.88804e-20 -0.000290842 -3.07424e-16 8.74656e-16 -1.94843e-30 0.001415 
9995 1 -0.0283179 0.0187371 0.00887205 0 0 0 1.75255e-18 1.6742e-18 -0.225489 -1.61044e-24 -1.53845e-24 -0.000290842 -7.58308e-18 7.93793e-18 1.07764e-32 0.001415 
4220 1 0.00732219 0.0249892 0.00823254 0 0 0 1.49261e-18 -1.10314e-17 -0.225489 1.79128e-20 -1.32387e-19 -0.000290842 -5.81189e-16 -7.86385e-17 1.17869e-30 0.001415 
2813 1 0.0621842 0.0261988 0.00835674 0 0 0 1.33276e-18 6.76232e-18 -0.225489 1.79045e-20 9.08457e-20 -0.000290842 1.57717e-16 -3.10839e-17 1.64367e-31 0.001415 
3551 1 0.0378271 0.027027 0.00894845 0 0 0 1.07712e-18 -6.30123e-18 -0.225489 -9.89775e-25 5.79028e-24 -0.000290842 3.71258e-17 6.34619e-18 -1.16597e-32 0.001415 
8776 1 0.0132433 0.0330907 0.00844771 0 0 0 -6.98345e-19 1.17529e-18 -0.225489 -1.10127e-20 1.8534e-20 -0.000290842 5.0397e-17 2.99454e-17 7.16304e-31 0.001415 
3969 1 -0.0266131 0.0377733 0.00785302 0 0 0 -1.46049e-17 4.5691e-17 -0.225489 -1.56053e-19 4.88207e-19 -0.000290842 -5.12838e-15 -1.63926e-15 4.61683e-30 0.001415 
7875 1 -0.0151895 0.0366812 0.00825395 0 0 0 3.91071e-18 4.62576e-18 -0.225489 4.25017e-20 5.02728e-20 -0.000290842 4.70531e-16 -3.97797e-16 1.54405e-31 0.001415 
4640 1 -0.000842548 0.0468509 0.0074624 0 0 0 -3.28958e-16 1.77129e-16 -0.225489 -8.94894e-18 4.81861e-18 -0.000290842 -3.21412e-16 -5.96913e-16 -1.34542e-29 0.001415 
5121 1 -0.0078553 -0.064238 0.0107757 0 0 0 -1.47621e-17 -5.1962e-18 -0.225489 -4.43006e-19 -1.55937e-19 -0.000290842 -1.23643e-16 3.51262e-16 9.02705e-29 0.001415 
6406 1 -0.013834 -0.0547628 0.00965304 0 0 0 1.46455e-17 -4.26973e-18 -0.225489 1.57237e-19 -4.58408e-20 -0.000290842 -3.20719e-16 -1.10009e-15 -3.20997e-31 0.001415 
4747 1 -0.048396 -0.0516837 0.0104418 0 0 0 -4.36959e-17 6.38884e-18 -0.225489 -4.73221e-19 6.91904e-20 -0.000290842 -1.4239e-16 -9.73861e-16 -2.12928e-30 0.001415 
8904 1 0.00698378 -0.051284 0.0099612 0 0 0 0 0 -0.225489 0 0 -0.000290842 0 0 0 0.001415 
9218 1 -0.0344149 -0.0491301 0.0109322 0 0 0 -9.41114e-18 2.43604e-17 -0.225489 -1.69445e-19 4.38602e-19 -0.000290842 -4.36561e-15 -1.68656e-15 -6.87507e-29 0.001415 
8781 1 0.0111727 -0.0390904 0.0108386 0 0 0 -2.3509e-17 -1.07247e-17 -0.225489 2.7638e-19 1.26083e-19 -0.000290842 -2.55822e-15 5.60775e-15 -7.48953e-30 0.001415 
165 1 0.0235441 -0.0395188 0.00976207 0 0 0 -0.00244888 -0.0326866 -0.0164692 0.000144901 0.00193408 -0.00590292 4.58187 -0.343274 -1.25006e-12 0.001415 
6551 1 -0.00658842 -0.0296093 0.00923584 0 0 0 3.64456e-18 -5.90697e-19 -0.225489 4.75394e-20 -7.70503e-21 -0.000290842 -6.2271e-17 -3.84208e-16 1.14347e-31 0.001415 
9787 1 -0.0202299 -0.023698 0.010051 0 0 0 -6.27499e-18 -7.80275e-18 -0.225489 -7.16555e-20 -8.91014e-20 -0.000290842 -4.61729e-16 3.71323e-16 -6.959e-30 0.001415 
1406 1 0.0148736 -0.0197 0.00962621 0 0 0 6.80088e-19 1.98961e-19 -0.225489 -6.24942e-25 -1.82828e-25 -0.000290842 -4.80051e-19 1.64091e-18 -6.54857e-34 0.001415 
8588 1 -0.0403296 -0.0176897 0.00990082 0 0 0 5.2415e-18 -6.92211e-17 -0.225489 1.00913e-19 -1.33269e-18 -0.000290842 8.6541e-15 6.55298e-16 7.71988e-29 0.001415 
4389 1 -0.00210167 -0.0164576 0.0110353 0 0 0 8.43596e-18 -4.11243e-18 -0.225489 3.33193e-19 -1.62428e-19 -0.000290842 4.42488e-17 9.07689e-17 -2.49955e-29 0.001415 
8820 1 0.00980992 -0.0172644 0.0102286 0 0 0 0 0 -0.225489 0 0 -0.000290842 0 0 0 0.001415 
3529 1 0.0670132 -0.0166749 0.0105286 0 0 0 0 0 -0.225489 0 0 -0.000290842 0 0 0 0.001415 
4473 1 -0.0215554 -0.0144106 0.0100053 0 0 0 0 0 -0.225489 0 0 -0.000290842 0 0 0 0.001415 
5437 1 0.0244153 -0.0132218 0.00988226 0 0 0 -1.11455e-16 2.11781e-16 -0.225489 -3.04456e-18 5.78512e-18 -0.000290842 2.59317e-16 1.36472e-16 -6.65258e-30 0.001415 
2099 1 -0.0146787 -0.0109948 0.00961498 0 0 0 -2.73357e-16 -4.95977e-17 -0.225489 -7.21734e-18 -1.30951e-18 -0.000290842 -5.39132e-16 2.97142e-15 9.39106e-30 0.001415 
4518 1 0.00403554 -0.00678852 0.0105872 0 0 0 -2.5876e-17 3.08907e-17 -0.225489 -4.27737e-19 5.10632e-19 -0.000290842 -8.75536e-15 -7.33404e-15 -2.59241e-28 0.001415 
9888 1 -0.0548111 -0.00420847 0.0106298 0 0 0 8.53772e-18 -1.06635e-17 -0.225489 2.70003e-19 -3.37229e-19 -0.000290842 2.68867e-16 2.15269e-16 1.58076e-29 0.001415 
3528 1 0.0516347 -0.000942708 0.00931725 0 0 0 -1.63429e-17 -7.43274e-18 -0.225489 -1.74769e-19 -7.94848e-20 -0.000290842 -6.42537e-16 1.41279e-15 -1.12173e-30 0.001415 
2457 1 0.0227749 0.00368251 0.00964023 0 0 0 0 0 -0.225489 0 0 -0.000290842 0 0 0 0.001415 
1470 1 -0.0541433 0.00552442 0.0108774 0 0 0 3.06925e-17 2.95769e-17 -0.225489 5.10166e-19 4.91624e-19 -0.000290842 -8.58119e-15 8.90484e-15 -4.68241e-29 0.001415 
7478 1 0.0063252 0.00556124 0.0107236 0 0 0 -1.5138e-18 1.53509e-18 -0.225489 -3.22077e-19 3.26606e-19 -0.000290842 -2.85637e-16 -2.81676e-16 -1.03905e-29 0.001415 
5545 1 -0.0302182 0.00727945 0.0110177 0 0 0 0 0 -0.225489 0 0 -0.000290842 0 0 0 0.001415 
6445 1 -0.0495051 0.00927345 0.0104017 0 0 0 -2.84548e-19 3.46646e-19 -0.225489 -9.23494e-21 1.12503e-20 -0.000290842 1.43858e-16 1.18088e-16 1.84303e-30 0.001415 
4431 1 -0.0620527 0.012605 0.0103962 0 0 0 -4.15327e-17 8.87233e-18 -0.225489 -6.72808e-19 1.43727e-19 -0.000290842 -1.85669e-15 -8.69145e-15 -2.75436e-29 0.001415 
4367 1 0.0426483 0.0117219 0.0109233 0 0 0 -1.86088e-17 1.67865e-17 -0.225489 -5.91028e-19 5.3315e-19 -0.000290842 -2.19223e-15 -2.43022e-15 3.02346e-29 0.001415 
5820 1 0.0722357 0.0116248 0.0101907 0 0 0 8.22652e-18 -7.90706e-18 -0.225489 8.81581e-20 -8.47346e-20 -0.000290842 -7.14956e-16 -7.43842e-16 -5.18767e-30 0.001415 
1280 1 -0.00826091 0.0224106 0.00951742 0 0 0 7.20032e-19 2.66721e-19 -0.225489 -6.61647e-25 -2.45094e-25 -0.000290842 -8.97968e-19 2.42412e-18 -9.39104e-34 0.001415 
2812 1 0.0619348 0.0249338 0.0108759 0 0 0 4.79302e-18 2.43194e-17 -0.225489 1.71243e-19 8.68875e-19 -0.000290842 -3.57452e-15 7.04489e-16 -3.46446e-29 0.001415 
4219 1 0.00713294 0.0263879 0.0106855 0 0 0 3.36175e-18 -2.48455e-17 -0.225489 1.11946e-19 -8.27355e-19 -0.000290842 4.91919e-15 6.65597e-16 3.97104e-29 0.001415 
6216 1 -0.023401 0.0310553 0.0107549 0 0 0 -2.51891e-18 -1.17118e-17 -0.225489 -2.82168e-20 -1.31196e-19 -0.000290842 -6.41608e-16 1.37993e-16 1.98489e-30 0.001415 
3968 1 -0.0261983 0.0364757 0.0103336 0 0 0 1.46049e-17 -4.5691e-17 -0.225489 1.56053e-19 -4.88207e-19 -0.000290842 -5.12838e-15 -1.63926e-15 4.61683e-30 0.001415 
7874 1 -0.0157052 0.0360712 0.0109689 0 0 0 -2.51916e-18 -2.97977e-18 -0.225489 2.52996e-19 2.99255e-19 -0.000290842 2.27651e-16 -1.92461e-16 -1.16116e-29 0.001415 
9745 1 -0.0323504 0.0411674 0.00963986 0 0 0 0 0 -0.225489 0 0 -0.000290842 0 0 0 0.001415 
485 1 0.0142511 0.04219 0.00937909 0 0 0 -2.85376e-18 2.41885e-18 -0.225489 2.62236e-24 -2.22271e-24 -0.000290842 -1.2641e-17 -1.49139e-17 1.11459e-32 0.001415 
4098 1 0.0474587 0.0419422 0.00958448 0 0 0 1.93967e-18 -6.59531e-19 -0.225489 3.74352e-20 -1.27288e-20 -0.000290842 -5.82051e-17 -1.7118e-16 -3.70957e-31 0.001415 
4639 1 0.000319678 0.0462251 0.0099657 0 0 0 3.11518e-16 -1.67739e-16 -0.225489 8.41666e-18 -4.532e-18 -0.000290842 3.53869e-16 6.57191e-16 6.3972e-30 0.001415 
7349 1 0.0388392 0.0490157 0.0099337 0 0 0 -1.10712e-18 -1.87225e-17 -0.225489 -2.74701e-20 -4.64544e-19 -0.000290842 4.51722e-16 -2.67119e-17 -6.31345e-30 0.001415 
3318 1 0.0108764 -0.0748018 0.0120228 0 0 0 0 0 -0.225489 0 0 -0.000290842 0 0 0 0.001415 
6407 1 -0.0157638 -0.0542001 0.0116451 0 0 0 -1.46455e-17 4.26973e-18 -0.225489 -1.57237e-19 4.58408e-20 -0.000290842 -3.20719e-16 -1.10009e-15 -3.20997e-31 0.001415 
4748 1 -0.0463698 -0.05198 0.0123952 0 0 0 1.07949e-17 -1.57833e-18 -0.225489 -2.33352e-19 3.41187e-20 -0.000290842 -2.43392e-15 -1.66465e-14 6.14478e-29 0.001415 
8903 1 0.00719176 -0.0530399 0.0121709 0 0 0 -3.69401e-18 3.11865e-17 -0.225489 -8.54523e-20 7.21427e-19 -0.000290842 -8.97176e-15 -1.06269e-15 7.51794e-29 0.001415 
8421 1 -0.0125515 -0.050364 0.0118483 0 0 0 7.75355e-19 -2.07035e-18 -0.225489 1.65441e-19 -4.41762e-19 -0.000290842 5.60897e-16 2.10058e-16 -3.24081e-29 0.001415 
5040 1 0.0412118 -0.051077 0.0114254 0 0 0 0 0 -0.225489 0 0 -0.000290842 0 0 0 0.001415 
8294 1 0.0417911 -0.0460756 0.0111934 0 0 0 0 0 -0.225489 0 0 -0.000290842 0 0 0 0.001415 
164 1 0.0235071 -0.0400123 0.0125453 0 0 0 -0.00285159 -0.0380617 -0.0157641 1.59521e-05 0.000212921 -0.00241681 -0.946267 0.0708945 -1.35061e-12 0.001415 
7141 1 -0.0440609 -0.0300013 0.0123859 0 0 0 0 0 -0.225489 0 0 -0.000290842 0 0 0 0.001415 
6550 1 -0.00716818 -0.0295154 0.0120042 0 0 0 -4.43871e-18 7.1941e-19 -0.225489 -4.75387e-20 7.70491e-21 -0.000290842 -6.18025e-17 -3.81317e-16 1.14551e-31 0.001415 
9788 1 -0.0191042 -0.0222982 0.0122379 0 0 0 -9.45542e-18 -1.17575e-17 -0.225489 -5.64637e-19 -7.02108e-19 -0.000290842 6.6203e-15 -5.32406e-15 3.09403e-28 0.001415 
1405 1 0.0162037 -0.0193109 0.0120936 0 0 0 -4.40801e-17 -1.28957e-17 -0.225489 -1.1381e-18 -3.32954e-19 -0.000290842 2.26223e-15 -7.73274e-15 -1.43977e-28 0.001415 
8819 1 0.00974619 -0.0192248 0.0122687 0 0 0 1.75107e-18 5.38574e-17 -0.225489 3.36073e-20 1.03365e-18 -0.000290842 -9.63101e-15 3.13134e-16 -5.88315e-29 0.001415 
8587 1 -0.0404076 -0.0166605 0.0125359 0 0 0 4.59275e-17 -6.06535e-16 -0.225489 3.88554e-19 -5.13138e-18 -0.000290842 -6.52869e-16 -4.9436e-17 -3.12082e-29 0.001415 
4472 1 -0.0211077 -0.0159411 0.0123432 0 0 0 -1.91673e-17 6.55195e-17 -0.225489 -3.34277e-19 1.14265e-18 -0.000290842 -1.35496e-14 -3.96386e-15 -1.18138e-28 0.001415 
5436 1 0.0238697 -0.0121851 0.0124584 0 0 0 1.19526e-18 -2.27117e-18 -0.225489 8.78084e-20 -1.66849e-19 -0.000290842 6.89245e-15 3.62732e-15 4.15849e-29 0.001415 
2098 1 -0.0163785 -0.0113032 0.0118566 0 0 0 -1.01481e-17 -1.84126e-18 -0.225489 -4.38586e-19 -7.95767e-20 -0.000290842 1.16485e-16 -6.42004e-16 -2.45449e-30 0.001415 
4519 1 0.0050482 -0.00799743 0.012937 0 0 0 -3.97545e-16 4.74588e-16 -0.225489 -3.56012e-18 4.25007e-18 -0.000290842 7.14408e-16 5.98432e-16 5.98366e-28 0.001415 
3527 1 0.053278 -0.000195356 0.0114967 0 0 0 1.63429e-17 7.43274e-18 -0.225489 1.74769e-19 7.94848e-20 -0.000290842 -6.42537e-16 1.41279e-15 -1.12173e-30 0.001415 
4852 1 -0.0576017 0.00160357 0.0122577 0 0 0 1.64401e-17 2.69747e-17 -0.225489 3.74387e-19 6.1429e-19 -0.000290842 -5.54338e-15 3.37848e-15 4.55426e-29 0.001415 
2456 1 0.0231999 0.00341526 0.0124254 0 0 0 -2.54251e-16 1.59892e-16 -0.225489 -1.91626e-18 1.20508e-18 -0.000290842 1.13351e-15 1.80245e-15 -4.07851e-29 0.001415 
6444 1 -0.0485008 0.00805 0.0127476 0 0 0 -2.15152e-17 2.62106e-17 -0.225489 -6.85132e-19 8.34651e-19 -0.000290842 -7.69712e-15 -6.31826e-15 -2.8087e-28 0.001415 
7897 1 0.0202104 0.0106666 0.0126005 0 0 0 8.94859e-18 4.26544e-17 -0.225489 1.84527e-19 8.7957e-19 -0.000290842 -1.08621e-14 2.2788e-15 -8.68955e-30 0.001415 
4430 1 -0.0607358 0.0123237 0.0128853 0 0 0 -6.06424e-16 1.29546e-16 -0.225489 -4.71866e-18 1.00801e-18 -0.000290842 7.18599e-16 3.36387e-15 -4.08944e-29 0.001415 
4345 1 0.0473197 0.0133822 0.0113589 0 0 0 7.52999e-18 2.64664e-18 -0.225489 -4.63741e-19 -1.62996e-19 -0.000290842 -2.15912e-17 6.14294e-17 -1.52425e-29 0.001415 
5821 1 0.071151 0.0126674 0.0125877 0 0 0 -8.22655e-18 7.90709e-18 -0.225489 -8.81581e-20 8.47346e-20 -0.000290842 -7.14971e-16 -7.43857e-16 -5.18794e-30 0.001415 
9994 1 -0.0272948 0.0197145 0.0113229 0 0 0 -3.20269e-17 -3.05952e-17 -0.225489 -8.28134e-19 -7.91114e-19 -0.000290842 6.03217e-15 -6.31445e-15 7.47295e-29 0.001415 
1279 1 -0.00741294 0.0227247 0.0121991 0 0 0 -3.61832e-17 -1.34033e-17 -0.225489 -8.11217e-19 -3.00499e-19 -0.000290842 7.53583e-16 -2.03435e-15 -4.27227e-29 0.001415 
3552 1 0.038076 0.0255707 0.0113622 0 0 0 -2.94893e-18 1.72515e-17 -0.225489 -1.13641e-19 6.64808e-19 -0.000290842 -4.53396e-15 -7.75024e-16 5.54217e-29 0.001415 
9955 1 0.0480973 0.0295036 0.0116576 0 0 0 0 0 -0.225489 0 0 -0.000290842 0 0 0 0.001415 
6215 1 -0.0229502 0.0331509 0.0126026 0 0 0 -2.83109e-18 -1.31633e-17 -0.225489 -9.96069e-20 -4.63129e-19 -0.000290842 1.14298e-14 -2.45826e-15 -8.45607e-29 0.001415 
8775 1 0.0134757 0.0326995 0.0112409 0 0 0 -2.78162e-18 4.68136e-18 -0.225489 -1.33639e-19 2.2491e-19 -0.000290842 -1.12025e-16 -6.65643e-17 2.66585e-30 0.001415 
3967 1 -0.0257836 0.0351781 0.0128141 0 0 0 -2.17622e-16 6.80823e-16 -0.225489 -1.72043e-18 5.38231e-18 -0.000290842 3.64573e-15 1.16534e-15 -1.54014e-28 0.001415 
4099 1 0.0465216 0.0422608 0.0122358 0 0 0 -1.82535e-18 6.20659e-19 -0.225489 2.97623e-19 -1.01199e-19 -0.000290842 3.31272e-17 9.74265e-17 -1.41369e-30 0.001415 
9746 1 -0.0326219 0.0429159 0.0118485 0 0 0 5.67114e-18 -3.65242e-17 -0.225489 1.25557e-19 -8.08635e-19 -0.000290842 9.8403e-15 1.52791e-15 -6.18735e-29 0.001415 
486 1 0.0131757 0.0431015 0.011833 0 0 0 4.43531e-17 -3.75936e-17 -0.225489 9.11169e-19 -7.72306e-19 -0.000290842 8.94593e-15 1.05544e-14 3.05184e-29 0.001415 
4638 1 0.00148191 0.0455993 0.012469 0 0 0 4.01967e-18 -2.16441e-18 -0.225489 -1.09896e-19 5.91743e-20 -0.000290842 -1.23438e-15 -2.29244e-15 9.11874e-29 0.001415 
7348 1 0.0388741 0.0496065 0.0127011 0 0 0 -2.57262e-17 -4.35053e-16 -0.225489 -2.43713e-19 -4.12141e-18 -0.000290842 6.14637e-15 -3.63456e-16 -5.25674e-30 0.001415 
8316 1 0.0241447 0.055508 0.0124006 0 0 0 0 0 -0.225489 0 0 -0.000290842 0 0 0 0.001415 
4831 1 0.0293284 0.0560787 0.0128699 0 0 0 6.6943e-16 -3.72131e-16 -0.225489 5.88138e-18 -3.26941e-18 -0.000290842 -9.0173e-15 -1.62213e-14 -7.10777e-28 0.001415 
6909 1 0.00964204 0.0590336 0.012904 0 0 0 1.07715e-16 -6.49009e-17 -0.225489 1.63802e-18 -9.86952e-19 -0.000290842 1.41731e-14 2.35227e-14 -6.14196e-28 0.001415 
6048 1 -0.0014895 0.0671831 0.0112481 0 0 0 -3.53503e-17 -2.12428e-18 -0.225489 -9.99589e-19 -6.00675e-20 -0.000290842 3.64028e-16 -6.05782e-15 -2.9331e-29 0.001415 
3317 1 0.00879117 -0.0741345 0.0138159 0 0 0 1.11988e-15 -3.58376e-16 -0.225489 2.67741e-18 -8.56809e-19 -0.000290842 -7.31652e-15 -2.28631e-14 -1.07154e-27 0.001415 
4537 1 0.0348065 -0.0668743 0.0137939 0 0 0 3.62555e-16 -7.06053e-16 -0.225489 5.42592e-18 -1.05666e-17 -0.000290842 5.61929e-15 2.88549e-15 2.84189e-29 0.001415 
5120 1 -0.00732864 -0.0640527 0.0135501 0 0 0 -4.4208e-16 -1.55611e-16 -0.225489 -6.46249e-18 -2.27478e-18 -0.000290842 1.62962e-15 -4.62964e-15 1.07201e-28 0.001415 
8902 1 0.00739974 -0.0547957 0.0143806 0 0 0 -1.35668e-16 1.14537e-15 -0.225489 -2.16431e-18 1.82721e-17 -0.000290842 1.08941e-14 1.2904e-15 -2.33597e-29 0.001415 
4749 1 -0.0443437 -0.0522762 0.0143486 0 0 0 -8.80934e-16 1.28803e-16 -0.225489 -1.48713e-17 2.17435e-18 -0.000290842 3.25934e-15 2.2292e-14 -4.82957e-29 0.001415 
6408 1 -0.0176936 -0.0536375 0.0136371 0 0 0 1.23106e-15 -3.58903e-16 -0.225489 1.93337e-17 -5.63651e-18 -0.000290842 -4.82451e-15 -1.65484e-14 -3.66368e-28 0.001415 
9217 1 -0.0337766 -0.0507822 0.0131394 0 0 0 -2.5714e-16 6.65599e-16 -0.225489 -1.88396e-18 4.87658e-18 -0.000290842 5.51404e-16 2.13023e-16 7.25551e-28 0.001415 
5039 1 0.0393096 -0.0515993 0.0134546 0 0 0 1.03589e-15 2.84434e-16 -0.225489 1.27689e-17 3.50609e-18 -0.000290842 2.94455e-15 -1.07238e-14 6.33474e-28 0.001415 
8420 1 -0.0130316 -0.0490822 0.0143253 0 0 0 3.76528e-16 -1.0054e-15 -0.225489 5.71583e-18 -1.52624e-17 -0.000290842 -6.23564e-15 -2.33527e-15 7.42783e-28 0.001415 
8293 1 0.0410995 -0.0444363 0.0133942 0 0 0 4.88745e-16 -1.15842e-15 -0.225489 3.71621e-18 -8.8081e-18 -0.000290842 -2.89625e-14 -1.22195e-14 8.31459e-28 0.001415 
8782 1 0.00995582 -0.0396456 0.0133325 0 0 0 8.61901e-16 3.93194e-16 -0.225489 1.32297e-17 6.03533e-18 -0.000290842 9.12744e-15 -2.00078e-14 -4.78849e-28 0.001415 
1765 1 -0.00582286 -0.0341936 0.0140874 0 0 0 9.82271e-16 -3.0739e-16 -0.225489 1.60528e-17 -5.02352e-18 -0.000290842 -9.51003e-15 -3.03895e-14 3.41346e-28 0.001415 
7142 1 -0.0430179 -0.0310366 0.0148045 0 0 0 -7.58259e-16 7.52647e-16 -0.225489 -1.19279e-17 1.18396e-17 -0.000290842 1.44765e-14 1.45845e-14 4.12348e-29 0.001415 
6549 1 -0.00774795 -0.0294214 0.0147726 0 0 0 5.22387e-16 -8.46667e-17 -0.225489 7.80256e-18 -1.26461e-18 -0.000290842 4.40213e-16 2.71608e-15 4.66894e-29 0.001415 
2898 1 -0.0015393 -0.0260351 0.0143596 0 0 0 6.73218e-16 -1.329e-16 -0.225489 1.00576e-17 -1.98547e-18 -0.000290842 -3.61894e-16 -1.83322e-15 -1.96432e-29 0.001415 
1113 1 0.057839 -0.0250229 0.0132162 0 0 0 1.00571e-15 5.15973e-16 -0.225489 1.40854e-17 7.22645e-18 -0.000290842 6.63021e-15 -1.29232e-14 2.22966e-28 0.001415 
2604 1 -0.0264828 -0.0239558 0.0140841 0 0 0 9.99584e-16 -4.35214e-17 -0.225489 1.62787e-17 -7.08765e-19 -0.000290842 -1.45045e-15 -3.33134e-14 -1.94144e-29 0.001415 
7959 1 -0.0480224 -0.0227988 0.0147661 0 0 0 -1.03838e-15 6.47666e-16 -0.225489 -1.65004e-17 1.02918e-17 -0.000290842 1.2895e-14 2.06741e-14 1.2643e-27 0.001415 
8818 1 0.00968245 -0.0211851 0.0143088 0 0 0 3.51625e-17 1.08149e-15 -0.225489 5.69096e-19 1.75036e-17 -0.000290842 6.95209e-15 -2.26034e-16 -3.98106e-29 0.001415 
9789 1 -0.0179785 -0.0208985 0.0144247 0 0 0 -8.01304e-16 -9.96396e-16 -0.225489 -1.19046e-17 -1.4803e-17 -0.000290842 -1.83944e-14 1.47928e-14 9.14345e-29 0.001415 
4471 1 -0.0206599 -0.0174716 0.0146812 0 0 0 -2.649e-16 9.05505e-16 -0.225489 -4.42572e-18 1.51284e-17 -0.000290842 2.78117e-15 8.13615e-16 -1.17794e-29 0.001415 
1404 1 0.0175339 -0.0189217 0.014561 0 0 0 -9.59022e-16 -2.80564e-16 -0.225489 -1.46045e-17 -4.27257e-18 -0.000290842 -2.11661e-15 7.235e-15 2.83927e-28 0.001415 
3530 1 0.0663652 -0.0174708 0.0131659 0 0 0 6.31371e-16 7.75449e-16 -0.225489 9.11616e-18 1.11964e-17 -0.000290842 3.96509e-15 -3.22838e-15 -8.20964e-28 0.001415 
4388 1 -0.00265555 -0.0161876 0.0137974 0 0 0 4.55004e-16 -2.21809e-16 -0.225489 6.757e-18 -3.29396e-18 -0.000290842 1.71956e-15 3.52738e-15 4.68503e-29 0.001415 
2097 1 -0.0180782 -0.0116116 0.0140981 0 0 0 1.15506e-15 2.09573e-16 -0.225489 1.79655e-17 3.25964e-18 -0.000290842 4.78609e-15 -2.63785e-14 -4.38032e-28 0.001415 
9887 1 -0.0551901 -0.00373509 0.0133941 0 0 0 3.17297e-16 -3.96298e-16 -0.225489 4.65538e-18 -5.8145e-18 -0.000290842 3.93236e-15 3.14845e-15 -5.45936e-29 0.001415 
4853 1 -0.0586257 -7.65915e-05 0.0142917 0 0 0 5.93934e-16 9.74521e-16 -0.225489 9.48006e-18 1.55548e-17 -0.000290842 3.57583e-15 -2.17934e-15 -2.51916e-28 0.001415 
9743 1 -0.0492029 -0.00049722 0.0147969 0 0 0 5.13375e-16 5.84777e-16 -0.225489 8.76161e-18 9.9802e-18 -0.000290842 1.82675e-14 -1.6037e-14 7.35129e-28 0.001415 
9744 1 -0.0476714 0.00124731 0.0131783 0 0 0 9.35037e-18 1.06508e-17 -0.225489 2.36132e-19 2.68974e-19 -0.000290842 -4.02458e-15 3.53318e-15 -8.76045e-29 0.001415 
3403 1 0.0399954 0.00144601 0.0133132 0 0 0 -9.16848e-16 4.33872e-17 -0.225489 -1.12054e-17 5.30264e-19 -0.000290842 6.23832e-16 1.31827e-14 -6.26383e-29 0.001415 
3526 1 0.0549212 0.000551996 0.0136762 0 0 0 -1.15453e-15 -5.25078e-16 -0.225489 -1.77106e-17 -8.05479e-18 -0.000290842 -1.27582e-14 2.80523e-14 -1.34646e-27 0.001415 
3843 1 -0.0432547 0.00201405 0.0138987 0 0 0 9.40971e-16 6.41143e-16 -0.225489 1.54628e-17 1.05357e-17 -0.000290842 8.21196e-15 -1.20523e-14 1.29571e-27 0.001415 
6238 1 0.0476834 0.00358837 0.0134342 0 0 0 1.16181e-15 -7.47528e-16 -0.225489 1.74091e-17 -1.12013e-17 -0.000290842 -1.1042e-14 -1.71615e-14 5.5488e-28 0.001415 
1469 1 -0.0554428 0.00427207 0.0130572 0 0 0 5.27192e-16 5.0803e-16 -0.225489 4.28445e-18 4.12873e-18 -0.000290842 7.23713e-15 -7.51009e-15 -2.48721e-28 0.001415 
7479 1 0.00708078 0.00479504 0.013341 0 0 0 -6.00072e-16 6.0851e-16 -0.225489 -8.80676e-18 8.9306e-18 -0.000290842 6.42911e-16 6.33995e-16 2.39165e-28 0.001415 
5546 1 -0.0286421 0.00814112 0.0132046 0 0 0 -9.05704e-16 -4.95161e-16 -0.225489 -8.28204e-18 -4.52791e-18 -0.000290842 -1.16914e-14 2.13849e-14 -1.12369e-27 0.001415 
7898 1 0.0197791 0.00861083 0.014497 0 0 0 2.26978e-16 1.08191e-15 -0.225489 3.62439e-18 1.7276e-17 -0.000290842 1.79462e-14 -3.76499e-15 -2.33531e-28 0.001415 
4366 1 0.0434972 0.010956 0.0135121 0 0 0 -6.69687e-16 6.04106e-16 -0.225489 -9.78264e-18 8.82465e-18 -0.000290842 2.46106e-15 2.72822e-15 -6.75473e-29 0.001415 
1176 1 0.023371 0.01534 0.0144985 0 0 0 1.41188e-17 1.19635e-15 -0.225489 2.1745e-19 1.84255e-17 -0.000290842 1.31628e-14 -1.55342e-16 2.37869e-30 0.001415 
4344 1 0.0486622 0.0138541 0.0138051 0 0 0 -1.05115e-15 -3.6946e-16 -0.225489 -1.58737e-17 -5.57929e-18 -0.000290842 -3.24288e-15 9.22634e-15 4.6737e-28 0.001415 
5629 1 -0.00809486 0.0186934 0.0136784 0 0 0 9.96079e-16 1.7425e-17 -0.225489 1.3946e-17 2.43965e-19 -0.000290842 6.08237e-16 -3.47691e-14 1.00708e-28 0.001415 
9993 1 -0.0262716 0.020692 0.0137738 0 0 0 -6.66771e-16 -6.36964e-16 -0.225489 -1.04423e-17 -9.97546e-18 -0.000290842 -1.1278e-14 1.18058e-14 6.52324e-28 0.001415 
3553 1 0.038325 0.0241144 0.013776 0 0 0 -1.57798e-16 9.23136e-16 -0.225489 -2.48915e-18 1.45618e-17 -0.000290842 1.28552e-14 2.19743e-15 1.9434e-28 0.001415 
2811 1 0.0616855 0.0236687 0.0133951 0 0 0 1.99975e-16 1.01466e-15 -0.225489 3.02257e-18 1.53363e-17 -0.000290842 2.89246e-15 -5.70065e-16 -1.79039e-28 0.001415 
4218 1 0.00694369 0.0277865 0.0131384 0 0 0 1.30187e-16 -9.62162e-16 -0.225489 6.68213e-19 -4.93852e-18 -0.000290842 -1.32541e-14 -1.79336e-15 1.17509e-28 0.001415 
9956 1 0.047731 0.0274693 0.0135906 0 0 0 1.95248e-16 1.08436e-15 -0.225489 2.84582e-18 1.58051e-17 -0.000290842 1.1645e-14 -2.09676e-15 9.74161e-30 0.001415 
6007 1 0.0347873 0.0296881 0.0133604 0 0 0 3.04139e-16 3.4078e-16 -0.225489 4.69912e-18 5.26525e-18 -0.000290842 -1.85613e-15 1.65655e-15 5.15206e-29 0.001415 
8774 1 0.0137081 0.0323084 0.0140341 0 0 0 -1.98345e-16 3.33807e-16 -0.225489 -2.90461e-18 4.88835e-18 -0.000290842 -3.46582e-15 -2.05936e-15 1.74282e-30 0.001415 
6214 1 -0.0224995 0.0352466 0.0144503 0 0 0 -2.236e-16 -1.03964e-15 -0.225489 -3.61662e-18 -1.68157e-17 -0.000290842 -2.2114e-14 4.75616e-15 6.04566e-28 0.001415 
7873 1 -0.0162209 0.0354611 0.0136838 0 0 0 4.36382e-16 5.16172e-16 -0.225489 6.35155e-18 7.51289e-18 -0.000290842 -5.87988e-15 4.97097e-15 2.25399e-28 0.001415 
6847 1 -0.0500743 0.0395872 0.0138404 0 0 0 -1.05028e-15 4.5301e-16 -0.225489 -1.45623e-17 6.28106e-18 -0.000290842 1.49644e-14 3.46942e-14 -1.5458e-27 0.001415 
487 1 0.0121003 0.044013 0.0142869 0 0 0 6.87839e-16 -5.83011e-16 -0.225489 1.08123e-17 -9.16448e-18 -0.000290842 -5.99433e-15 -7.07213e-15 3.73401e-29 0.001415 
9747 1 -0.0328934 0.0446643 0.0140571 0 0 0 1.77593e-16 -1.14377e-15 -0.225489 2.82954e-18 -1.82232e-17 -0.000290842 -1.35717e-14 -2.10729e-15 -1.37479e-30 0.001415 
8988 1 0.0105277 0.0515901 0.0145444 0 0 0 4.00646e-16 -5.66807e-16 -0.225489 7.23258e-18 -1.02322e-17 -0.000290842 -2.14521e-14 -1.51634e-14 4.24548e-29 0.001415 
8315 1 0.0261215 0.0546907 0.0142534 0 0 0 -1.11884e-15 4.62561e-16 -0.225489 -1.78504e-17 7.37985e-18 -0.000290842 5.53259e-15 1.33822e-14 4.51066e-28 0.001415 
6908 1 0.00786074 0.0601069 0.0148234 0 0 0 8.7243e-16 -5.25663e-16 -0.225489 1.41533e-17 -8.52773e-18 -0.000290842 -2.91455e-15 -4.83721e-15 7.54405e-28 0.001415 
6047 1 -2.16486e-05 0.0672713 0.0136661 0 0 0 -1.12018e-15 -6.73141e-17 -0.225489 -1.70029e-17 -1.02174e-18 -0.000290842 -5.40848e-16 9.00031e-15 5.58542e-29 0.001415 
7455 1 0.00864732 0.0657086 0.0138124 0 0 0 -4.80328e-17 1.13905e-15 -0.225489 -7.87227e-19 1.86683e-17 -0.000290842 6.03705e-15 2.54578e-16 -1.66744e-29 0.001415 
8757 1 0.00829498 0.0765507 0.0132589 0 0 0 0 0 -0.225489 0 0 -0.000290842 0 0 0 0.001415 