ITEM: TIMESTEP
250000
ITEM: NUMBER OF ATOMS
10248
ITEM: BOX BOUNDS ff ff ff
-0.2 0.2
-0.2 0.2
-0.01 0.5
ITEM: ATOMS id type x y z ix iy iz vx vy vz fx fy fz omegax omegay omegaz radius 
168 1 0.0237289 -0.0370528 0.00142172 0 0 0 0.0326133 0.435308 -0.00596491 -4.32841e-08 -5.77736e-07 -0.000291042 -307.722 23.0546 2.92755e-12 0.001415 
5124 1 -0.00943529 -0.0647942 0.00188315 0 0 0 -8.78441e-17 -3.09209e-17 -0.249015 -6.59733e-18 -2.32224e-18 -0.000290809 6.88542e-16 -1.9561e-15 -2.72322e-30 0.001415 
9891 1 -0.0536741 -0.00562861 0.00176762 0 0 0 5.60004e-17 -6.99436e-17 -0.249015 4.71739e-18 -5.89194e-18 -0.000290809 2.47001e-15 1.97762e-15 -8.28267e-30 0.001415 
8778 1 0.0127785 0.033873 0.00229193 0 0 0 -3.61194e-17 6.07875e-17 -0.249015 -1.78134e-18 2.99793e-18 -0.000290809 -1.2679e-15 -7.53376e-16 3.30898e-30 0.001415 
5123 1 -0.00890863 -0.0646088 0.00465753 0 0 0 8.69078e-17 3.05913e-17 -0.249015 6.59733e-18 2.32224e-18 -0.000290809 6.87093e-16 -1.95199e-15 -2.72042e-30 0.001415 
167 1 0.023669 -0.0378519 0.00421331 0 0 0 0.0225712 0.301269 0.00124012 -2.40863e-08 -3.21493e-07 -0.000291051 400.644 -30.0163 1.61867e-11 0.001415 
5439 1 0.0255064 -0.015295 0.0041605 0 0 0 6.69689e-19 -1.27251e-18 -0.249015 -6.4586e-25 1.22723e-24 -0.000290809 -5.2383e-18 -2.75678e-18 2.22065e-33 0.001415 
9890 1 -0.0540531 -0.00515523 0.00453189 0 0 0 -5.50884e-17 6.88046e-17 -0.249015 -4.71739e-18 5.89195e-18 -0.000290809 2.46401e-15 1.97281e-15 -8.28299e-30 0.001415 
5818 1 0.0744051 0.00953964 0.00482742 0 0 0 2.36841e-19 -2.27644e-19 -0.249015 -2.28414e-25 2.19544e-25 -0.000290809 -2.53147e-19 -2.63374e-19 -1.71758e-34 0.001415 
4096 1 0.0493328 0.0413049 0.00371251 0 0 0 6.44396e-16 -2.19109e-16 -0.249015 2.65421e-17 -9.02491e-18 -0.000290809 -2.37438e-15 -6.98303e-15 -5.55647e-33 0.001415 
4641 1 -0.00200478 0.0474767 0.0043897 0 0 0 -2.10624e-18 1.13412e-18 -0.249015 2.03129e-24 -1.09376e-24 -0.000290809 5.34783e-18 9.93178e-18 -2.46498e-33 0.001415 
166 1 0.0235554 -0.0393688 0.00682293 0 0 0 -0.0114048 -0.152227 -0.0745903 9.25382e-09 1.23516e-07 -0.000290989 -76.3103 5.71718 -1.31795e-11 0.001415 
8779 1 0.0136066 -0.0379801 0.00528129 0 0 0 3.65911e-19 1.66926e-19 -0.249015 -3.52891e-25 -1.60987e-25 -0.000290809 1.63533e-17 -3.58472e-17 1.79987e-31 0.001415 
6552 1 -0.00600865 -0.0297033 0.00589805 0 0 0 2.04947e-18 -3.3217e-19 -0.249015 -1.97654e-24 3.20351e-25 -0.000290809 6.38126e-18 3.93719e-17 -8.49593e-32 0.001415 
1407 1 0.0135434 -0.0200891 0.00658939 0 0 0 -1.74863e-18 -5.11565e-19 -0.249015 1.68641e-24 4.93362e-25 -0.000290809 -4.03605e-18 1.3796e-17 1.86112e-33 0.001415 
8589 1 -0.0402517 -0.0187189 0.00669635 0 0 0 2.10718e-19 -2.78281e-18 -0.249015 -2.0322e-25 2.68379e-24 -0.000290809 -2.89134e-16 -2.18936e-17 -5.27877e-30 0.001415 
5438 1 0.0249608 -0.0142584 0.00673668 0 0 0 9.75076e-16 -1.85279e-15 -0.249015 1.70584e-18 -3.24136e-18 -0.000290809 -4.18157e-14 -2.20065e-14 -5.64043e-29 0.001415 
2100 1 -0.012979 -0.0106864 0.006804 0 0 0 2.39464e-15 4.34482e-16 -0.249015 4.82209e-18 8.74915e-19 -0.000290809 -2.73204e-16 1.50576e-15 5.74853e-28 0.001415 
4516 1 0.00201022 -0.00437069 0.00531798 0 0 0 -1.79077e-18 2.13782e-18 -0.249015 1.72705e-24 -2.06175e-24 -0.000290809 1.56443e-17 1.31046e-17 -1.84131e-31 0.001415 
6447 1 -0.0515136 0.0117203 0.00514036 0 0 0 -1.27924e-18 1.55841e-18 -0.249015 1.23372e-24 -1.50296e-24 -0.000290809 3.3822e-18 2.77632e-18 -3.23406e-32 0.001415 
4347 1 0.0446345 0.0124385 0.00589714 0 0 0 -1.91534e-18 -6.73205e-19 -0.249015 1.84719e-24 6.49251e-25 -0.000290809 2.63659e-17 -7.50138e-17 -5.77318e-31 0.001415 
9996 1 -0.0293411 0.0177597 0.00585179 0 0 0 -4.59976e-18 -4.39414e-18 -0.249015 4.43609e-24 4.23778e-24 -0.000290809 -8.26012e-17 8.64665e-17 2.8635e-31 0.001415 
1281 1 -0.00910888 0.0220965 0.00626638 0 0 0 -1.82235e-18 -6.75052e-19 -0.249015 1.7575e-24 6.51032e-25 -0.000290809 -7.25579e-18 1.95875e-17 2.41314e-32 0.001415 
4221 1 0.00751144 0.0235905 0.00521022 0 0 0 6.82588e-20 -5.04477e-19 -0.249015 -6.583e-26 4.86526e-25 -0.000290809 2.47607e-17 3.35027e-18 -8.09367e-32 0.001415 
3550 1 0.0375782 0.0284832 0.00596529 0 0 0 -3.48932e-18 2.04128e-17 -0.249015 3.36516e-24 -1.96865e-23 -0.000290809 5.78785e-17 9.8936e-18 -7.52481e-31 0.001415 
2814 1 0.0624335 0.0274639 0.00526815 0 0 0 3.78025e-19 1.91807e-18 -0.249015 -3.64574e-25 -1.84982e-24 -0.000290809 -7.74866e-17 1.52716e-17 2.7519e-31 0.001415 
8777 1 0.0130109 0.0334818 0.00508512 0 0 0 3.55543e-17 -5.98365e-17 -0.249015 1.78134e-18 -2.99793e-18 -0.000290809 -1.28788e-15 -7.65244e-16 3.23686e-30 0.001415 
484 1 0.0153265 0.0412785 0.0063558 0 0 0 8.07161e-18 -6.84149e-18 -0.249015 -7.7844e-24 6.59805e-24 -0.000290809 -1.67017e-16 -1.97047e-16 -2.16219e-31 0.001415 
4097 1 0.0483957 0.0416236 0.00636379 0 0 0 -6.39102e-16 2.17309e-16 -0.249015 -2.65421e-17 9.02491e-18 -0.000290809 -2.19818e-15 -6.46481e-15 -4.86664e-30 0.001415 
4640 1 -0.000842548 0.0468509 0.006893 0 0 0 -2.26778e-15 1.2211e-15 -0.249015 -4.70569e-18 2.53381e-18 -0.000290809 1.5326e-14 2.84628e-14 -2.11974e-27 0.001415 
7350 1 0.0388042 0.0484249 0.00659686 0 0 0 -1.64641e-20 -2.78423e-19 -0.249015 1.58783e-26 2.68516e-25 -0.000290809 -3.95003e-17 2.33579e-18 8.79189e-32 0.001415 
5122 1 -0.00838197 -0.0644234 0.0074319 0 0 0 -3.9372e-16 -1.38588e-16 -0.249015 3.78278e-19 1.33153e-19 -0.000290809 -9.743e-16 2.76792e-15 -1.27385e-28 0.001415 
9219 1 -0.0350531 -0.0474779 0.00815552 0 0 0 0 0 -0.249015 0 0 -0.000290809 0 0 0 0.001415 
8295 1 0.0424827 -0.0477148 0.00842324 0 0 0 0 0 -0.249015 0 0 -0.000290809 0 0 0 0.001415 
8780 1 0.0123897 -0.0385353 0.00777524 0 0 0 4.71536e-17 2.15112e-17 -0.249015 -4.54757e-23 -2.07458e-23 -0.000290809 -3.71294e-15 8.13894e-15 -1.54158e-29 0.001415 
6551 1 -0.00658842 -0.0296093 0.00866643 0 0 0 6.18131e-18 -1.00184e-18 -0.249015 5.27928e-20 -8.55647e-21 -0.000290809 -1.98648e-16 -1.22564e-15 1.60907e-30 0.001415 
9889 1 -0.0544321 -0.00468185 0.00729615 0 0 0 4.31648e-16 -5.39122e-16 -0.249015 1.69516e-19 -2.11723e-19 -0.000290809 -5.41643e-16 -4.33667e-16 -3.20414e-29 0.001415 
4517 1 0.00302288 -0.0055796 0.00766786 0 0 0 4.71649e-19 -5.63053e-19 -0.249015 -4.54866e-25 5.43019e-25 -0.000290809 5.9295e-17 4.96692e-17 -1.96524e-31 0.001415 
3528 1 0.0516347 -0.000942708 0.00874784 0 0 0 -2.96294e-17 -1.34754e-17 -0.249015 -1.54325e-19 -7.01869e-20 -0.000290809 -2.20073e-15 4.8389e-15 -3.50111e-29 0.001415 
7477 1 0.00556963 0.00632744 0.00753676 0 0 0 -1.0373e-16 1.05189e-16 -0.249015 1.00039e-22 -1.01446e-22 -0.000290809 -1.07802e-15 -1.06307e-15 3.32152e-29 0.001415 
6446 1 -0.0505093 0.0104969 0.00748632 0 0 0 -5.10702e-17 6.22155e-17 -0.249015 4.9253e-23 -6.00017e-23 -0.000290809 -1.134e-15 -9.30859e-16 -3.32498e-30 0.001415 
5819 1 0.0733204 0.0105822 0.00722437 0 0 0 6.07508e-16 -5.83917e-16 -0.249015 -5.85891e-22 5.63139e-22 -0.000290809 3.73557e-15 3.88649e-15 3.36087e-28 0.001415 
4368 1 0.0417993 0.0124877 0.00776517 0 0 0 -4.44483e-20 4.00956e-20 -0.249015 4.28667e-26 -3.86689e-26 -0.000290809 1.37435e-17 1.52354e-17 2.89511e-31 0.001415 
4346 1 0.0459771 0.0129104 0.00834331 0 0 0 -1.7875e-17 -6.28272e-18 -0.249015 -1.28117e-19 -4.50307e-20 -0.000290809 -6.501e-16 1.8496e-15 1.13491e-29 0.001415 
9995 1 -0.0283179 0.0187371 0.00830264 0 0 0 4.59976e-18 4.39414e-18 -0.249015 -4.43609e-24 -4.23778e-24 -0.000290809 -8.26012e-17 8.64665e-17 2.8635e-31 0.001415 
4220 1 0.00732219 0.0249892 0.00766314 0 0 0 3.02098e-18 -2.2327e-17 -0.249015 -2.91348e-24 2.15325e-23 -0.000290809 -4.24693e-15 -5.74636e-16 1.63086e-30 0.001415 
2813 1 0.0621842 0.0261988 0.00778733 0 0 0 3.2917e-18 1.67018e-17 -0.249015 -3.17457e-24 -1.61075e-23 -0.000290809 5.13748e-15 -1.01253e-15 -2.37248e-29 0.001415 
3551 1 0.0378271 0.027027 0.00837904 0 0 0 3.48932e-18 -2.04128e-17 -0.249015 -3.36516e-24 1.96865e-23 -0.000290809 5.78785e-17 9.8936e-18 -7.52481e-31 0.001415 
8776 1 0.0132433 0.0330907 0.00787831 0 0 0 -1.46373e-18 2.46341e-18 -0.249015 -1.77018e-20 2.97915e-20 -0.000290809 1.21997e-15 7.24894e-16 3.99755e-30 0.001415 
3969 1 -0.0266131 0.0377733 0.00728362 0 0 0 -3.53362e-16 1.10548e-15 -0.249015 1.94376e-19 -6.08097e-19 -0.000290809 -4.88678e-15 -1.56204e-15 5.63179e-29 0.001415 
7875 1 -0.0151895 0.0366812 0.00768455 0 0 0 7.34899e-18 8.6927e-18 -0.249015 -7.08749e-24 -8.38339e-24 -0.000290809 1.73569e-15 -1.46738e-15 7.82904e-30 0.001415 
485 1 0.0142511 0.04219 0.00880969 0 0 0 -8.07161e-18 6.84149e-18 -0.249015 7.7844e-24 -6.59805e-24 -0.000290809 -1.67017e-16 -1.97047e-16 -2.16219e-31 0.001415 
5121 1 -0.0078553 -0.064238 0.0102063 0 0 0 3.20656e-16 1.1287e-16 -0.249015 -1.90638e-18 -6.71042e-19 -0.000290809 -1.15121e-15 3.27052e-15 4.52495e-28 0.001415 
6406 1 -0.013834 -0.0547628 0.00908364 0 0 0 2.66494e-17 -7.76934e-18 -0.249015 1.39932e-19 -4.07956e-20 -0.000290809 -1.13244e-15 -3.88436e-15 1.39142e-29 0.001415 
4747 1 -0.048396 -0.0516837 0.00987241 0 0 0 -8.04033e-17 1.17559e-17 -0.249015 -4.34958e-19 6.35958e-20 -0.000290809 5.94659e-16 4.06712e-15 1.22886e-29 0.001415 
8904 1 0.00698378 -0.051284 0.00939179 0 0 0 0 0 -0.249015 0 0 -0.000290809 0 0 0 0.001415 
9218 1 -0.0344149 -0.0491301 0.0103628 0 0 0 -2.62859e-17 6.80404e-17 -0.249015 -2.39359e-19 6.19574e-19 -0.000290809 -1.53437e-14 -5.92773e-15 -1.98018e-28 0.001415 
8294 1 0.0417911 -0.0460756 0.010624 0 0 0 0 0 -0.249015 0 0 -0.000290809 0 0 0 0.001415 
8781 1 0.0111727 -0.0390904 0.0102692 0 0 0 1.23169e-17 5.61891e-18 -0.249015 9.4295e-19 4.30168e-19 -0.000290809 -7.93686e-15 1.7398e-14 1.54764e-28 0.001415 
165 1 0.023538 -0.0396005 0.00970199 0 0 0 -0.00268457 -0.0358325 -0.0299118 1.53879e-09 2.05391e-08 -0.000291032 -10.1216 0.758312 -1.93305e-11 0.001415 
9787 1 -0.0202299 -0.023698 0.00948159 0 0 0 -1.28242e-17 -1.59465e-17 -0.249015 -9.04782e-20 -1.12507e-19 -0.000290809 -7.2694e-16 5.84607e-16 -1.08647e-28 0.001415 
1406 1 0.0148736 -0.0197 0.0090568 0 0 0 1.74863e-18 5.11565e-19 -0.249015 -1.68641e-24 -4.93362e-25 -0.000290809 -4.03605e-18 1.3796e-17 1.86112e-33 0.001415 
8588 1 -0.0403296 -0.0176897 0.00933142 0 0 0 1.43013e-17 -1.88868e-16 -0.249015 1.34694e-19 -1.77881e-18 -0.000290809 3.48017e-14 2.63523e-15 1.80926e-28 0.001415 
4389 1 -0.00210167 -0.0164576 0.0104659 0 0 0 4.5025e-17 -2.19492e-17 -0.249015 6.1015e-19 -2.97441e-19 -0.000290809 -3.3428e-16 -6.85719e-16 -6.70268e-29 0.001415 
8820 1 0.00980992 -0.0172644 0.00965921 0 0 0 0 0 -0.249015 0 0 -0.000290809 0 0 0 0.001415 
3529 1 0.0670132 -0.0166749 0.0099592 0 0 0 1.53712e-17 1.88789e-17 -0.249015 6.07254e-19 7.45828e-19 -0.000290809 -3.25697e-16 2.65183e-16 -1.02826e-28 0.001415 
4473 1 -0.0215554 -0.0144106 0.00943589 0 0 0 0 0 -0.249015 0 0 -0.000290809 0 0 0 0.001415 
5437 1 0.0244153 -0.0132218 0.00931286 0 0 0 -9.03703e-16 1.71717e-15 -0.249015 -7.92584e-20 1.50603e-19 -0.000290809 -2.2736e-14 -1.19653e-14 1.29863e-28 0.001415 
2099 1 -0.0146787 -0.0109948 0.00904557 0 0 0 -2.28749e-15 -4.15039e-16 -0.249015 -1.71448e-18 -3.11073e-19 -0.000290809 1.37822e-17 -7.59605e-17 2.24064e-28 0.001415 
4518 1 0.00403554 -0.00678852 0.0100177 0 0 0 -6.6673e-17 7.95941e-17 -0.249015 -5.92521e-19 7.07351e-19 -0.000290809 -2.75929e-14 -2.31135e-14 -1.38751e-27 0.001415 
9888 1 -0.0548111 -0.00420847 0.0100604 0 0 0 -3.83395e-16 4.78854e-16 -0.249015 9.60584e-19 -1.19975e-18 -0.000290809 -1.54777e-17 -1.23923e-17 -1.45108e-28 0.001415 
2457 1 0.0227749 0.00368251 0.00907083 0 0 0 -2.43619e-18 1.53205e-18 -0.249015 -2.40116e-19 1.51003e-19 -0.000290809 -2.37373e-16 -3.77458e-16 8.23879e-30 0.001415 
1470 1 -0.0541433 0.00552442 0.010308 0 0 0 8.11828e-17 7.82321e-17 -0.249015 7.11025e-19 6.85182e-19 -0.000290809 -3.10693e-14 3.22412e-14 1.28737e-28 0.001415 
7478 1 0.0063252 0.00556124 0.0101542 0 0 0 6.87379e-17 -6.97044e-17 -0.249015 -5.80914e-19 5.89082e-19 -0.000290809 -1.98817e-15 -1.9606e-15 -4.40229e-28 0.001415 
5545 1 -0.0302182 0.00727945 0.0104483 0 0 0 0 0 -0.249015 0 0 -0.000290809 0 0 0 0.001415 
6445 1 -0.0495051 0.00927345 0.00983228 0 0 0 4.28771e-17 -5.22343e-17 -0.249015 -9.78552e-20 1.19211e-19 -0.000290809 1.68086e-15 1.37975e-15 3.03961e-29 0.001415 
4431 1 -0.0620527 0.012605 0.0098268 0 0 0 -1.06202e-16 2.26871e-17 -0.249015 -8.9674e-19 1.91564e-19 -0.000290809 -6.6695e-15 -3.12209e-14 8.26075e-29 0.001415 
4367 1 0.0426483 0.0117219 0.0103539 0 0 0 -7.50528e-17 6.77031e-17 -0.249015 -8.36506e-19 7.54589e-19 -0.000290809 -6.76711e-15 -7.50173e-15 -5.49546e-28 0.001415 
4345 1 0.0473197 0.0133822 0.0107895 0 0 0 -4.19077e-17 -1.47297e-17 -0.249015 -8.28255e-19 -2.91115e-19 -0.000290809 3.4336e-15 -9.76896e-15 -7.19933e-28 0.001415 
5820 1 0.0722357 0.0116248 0.00962131 0 0 0 -5.77923e-16 5.5548e-16 -0.249015 1.03283e-18 -9.92726e-19 -0.000290809 2.534e-15 2.63638e-15 9.07559e-29 0.001415 
9994 1 -0.0272948 0.0197145 0.0107535 0 0 0 -1.06999e-16 -1.02216e-16 -0.249015 -8.88057e-19 -8.48358e-19 -0.000290809 2.27088e-14 -2.37715e-14 -1.18531e-27 0.001415 
1280 1 -0.00826091 0.0224106 0.00894802 0 0 0 1.82235e-18 6.75052e-19 -0.249015 -1.7575e-24 -6.51032e-25 -0.000290809 -7.25579e-18 1.95875e-17 2.41314e-32 0.001415 
2812 1 0.0619348 0.0249338 0.0103065 0 0 0 2.06124e-17 1.04585e-16 -0.249015 2.53224e-19 1.28484e-18 -0.000290809 -1.10374e-14 2.17532e-15 2.462e-28 0.001415 
4219 1 0.00713294 0.0263879 0.010116 0 0 0 1.42982e-17 -1.05673e-16 -0.249015 2.0587e-19 -1.52152e-18 -0.000290809 2.74377e-14 3.71249e-15 1.77915e-28 0.001415 
3552 1 0.038076 0.0255707 0.0107928 0 0 0 -1.38218e-17 8.08586e-17 -0.249015 -1.31276e-19 7.67978e-19 -0.000290809 -1.86256e-14 -3.18381e-15 4.79777e-28 0.001415 
6216 1 -0.023401 0.0310553 0.0101855 0 0 0 -4.83347e-18 -2.24735e-17 -0.249015 -2.89695e-20 -1.34696e-19 -0.000290809 -3.43087e-15 7.37891e-16 1.70968e-29 0.001415 
8775 1 0.0134757 0.0326995 0.0106715 0 0 0 -1.70895e-17 2.87609e-17 -0.249015 -2.34087e-19 3.93959e-19 -0.000290809 1.07523e-15 6.3889e-16 -6.11316e-29 0.001415 
3968 1 -0.0261983 0.0364757 0.00976415 0 0 0 3.5166e-16 -1.10016e-15 -0.249015 -6.0351e-19 1.88806e-18 -0.000290809 -6.1315e-15 -1.9599e-15 8.87966e-29 0.001415 
7874 1 -0.0157052 0.0360712 0.0103995 0 0 0 2.63729e-17 3.1195e-17 -0.249015 5.62103e-19 6.6488e-19 -0.000290809 2.65632e-15 -2.24571e-15 -2.58179e-28 0.001415 
9745 1 -0.0323504 0.0411674 0.00907046 0 0 0 0 0 -0.249015 0 0 -0.000290809 0 0 0 0.001415 
4098 1 0.0474587 0.0419422 0.00901508 0 0 0 1.92322e-18 -6.53938e-19 -0.249015 6.31484e-20 -2.14719e-20 -0.000290809 3.71502e-16 1.09258e-15 4.57269e-30 0.001415 
4639 1 0.000319678 0.0462251 0.00939629 0 0 0 2.1431e-15 -1.15397e-15 -0.249015 1.56985e-18 -8.45297e-19 -0.000290809 1.48445e-14 2.75687e-14 -1.37737e-27 0.001415 
7349 1 0.0388392 0.0490157 0.00936429 0 0 0 -3.91404e-18 -6.61899e-17 -0.249015 -4.68179e-20 -7.91733e-19 -0.000290809 7.89852e-15 -4.67066e-16 -8.31934e-29 0.001415 
6048 1 -0.0014895 0.0671831 0.0106787 0 0 0 -1.32273e-16 -7.94859e-18 -0.249015 -1.44844e-18 -8.704e-20 -0.000290809 1.53684e-15 -2.55746e-14 -2.3132e-28 0.001415 
3318 1 0.0108764 -0.0748018 0.0114534 0 0 0 0 0 -0.249015 0 0 -0.000290809 0 0 0 0.001415 
6407 1 -0.0157638 -0.0542001 0.0110757 0 0 0 -2.66494e-17 7.76934e-18 -0.249015 -1.39932e-19 4.07956e-20 -0.000290809 -1.13244e-15 -3.88436e-15 1.39142e-29 0.001415 
4748 1 -0.0463698 -0.05198 0.0118258 0 0 0 -2.15859e-17 3.1561e-18 -0.249015 -4.17023e-19 6.09736e-20 -0.000290809 -7.20332e-15 -4.92664e-14 3.52904e-28 0.001415 
8903 1 0.00719176 -0.0530399 0.0116015 0 0 0 -1.20739e-17 1.01934e-16 -0.249015 -1.0207e-19 8.61722e-19 -0.000290809 -2.87764e-14 -3.40853e-15 4.11066e-28 0.001415 
9217 1 -0.0337766 -0.0507822 0.01257 0 0 0 -3.85611e-16 9.98142e-16 -0.249015 -8.86002e-19 2.29339e-18 -0.000290809 3.55964e-15 1.37519e-15 1.70371e-27 0.001415 
8421 1 -0.0125515 -0.050364 0.0112789 0 0 0 1.82398e-17 -4.87039e-17 -0.249015 3.10518e-19 -8.29147e-19 -0.000290809 6.28327e-15 2.35311e-15 -1.59922e-27 0.001415 
5040 1 0.0412118 -0.051077 0.010856 0 0 0 0 0 -0.249015 0 0 -0.000290809 0 0 0 0.001415 
164 1 0.0235007 -0.0400984 0.0125289 0 0 0 -0.00275479 -0.0367697 -0.00871299 1.5318e-09 2.04458e-08 -0.000291045 8.21561 -0.615515 -1.82184e-11 0.001415 
7141 1 -0.0440609 -0.0300013 0.0118165 0 0 0 -4.43593e-18 4.4031e-18 -0.249015 -4.32693e-19 4.2949e-19 -0.000290809 -7.60531e-16 -7.66201e-16 -2.26788e-29 0.001415 
6550 1 -0.00716818 -0.0295154 0.0114348 0 0 0 6.89247e-18 -1.11711e-18 -0.249015 4.74105e-19 -7.68413e-20 -0.000290809 -3.15627e-16 -1.9474e-15 -6.03751e-29 0.001415 
1113 1 0.057839 -0.0250229 0.0126467 0 0 0 1.94779e-15 9.99302e-16 -0.249015 7.80796e-18 4.00584e-18 -0.000290809 2.0124e-14 -3.92246e-14 4.49428e-28 0.001415 
9788 1 -0.0191042 -0.0222982 0.0116685 0 0 0 -6.31525e-17 -7.85281e-17 -0.249015 -6.37345e-19 -7.92519e-19 -0.000290809 2.53659e-14 -2.03993e-14 1.94865e-27 0.001415 
1405 1 0.0162037 -0.0193109 0.0115242 0 0 0 -1.49531e-16 -4.37456e-17 -0.249015 -1.4479e-18 -4.23585e-19 -0.000290809 8.54098e-15 -2.91948e-14 -8.52631e-28 0.001415 
8819 1 0.00974619 -0.0192248 0.0116993 0 0 0 4.90044e-18 1.50722e-16 -0.249015 3.77338e-20 1.16057e-18 -0.000290809 -3.3267e-14 1.08161e-15 -3.19016e-28 0.001415 
3530 1 0.0663652 -0.0174708 0.0125965 0 0 0 8.59115e-16 1.05516e-15 -0.249015 -2.31933e-20 -2.84859e-20 -0.000290809 6.95882e-15 -5.66588e-15 1.34279e-27 0.001415 
8587 1 -0.0404076 -0.0166605 0.0119665 0 0 0 6.86705e-17 -9.06886e-16 -0.249015 9.25352e-20 -1.22205e-18 -0.000290809 -1.79956e-14 -1.36265e-15 -1.41029e-29 0.001415 
4472 1 -0.0211077 -0.0159411 0.0117738 0 0 0 -4.96849e-17 1.69837e-16 -0.249015 -3.62022e-19 1.23749e-18 -0.000290809 -4.31341e-14 -1.26186e-14 -5.76438e-28 0.001415 
5436 1 0.0238697 -0.0121851 0.011889 0 0 0 -1.59403e-17 3.0289e-17 -0.249015 -1.01535e-18 1.92931e-18 -0.000290809 2.55448e-14 1.34436e-14 1.24465e-28 0.001415 
2098 1 -0.0163785 -0.0113032 0.0112872 0 0 0 -1.07156e-16 -1.94423e-17 -0.249015 -3.10761e-18 -5.63842e-19 -0.000290809 2.86986e-16 -1.58172e-15 -3.50789e-28 0.001415 
4519 1 0.0050482 -0.00799743 0.0123676 0 0 0 -6.38001e-16 7.61645e-16 -0.249015 -1.60258e-18 1.91316e-18 -0.000290809 3.28109e-15 2.74845e-15 1.83896e-27 0.001415 
3527 1 0.053278 -0.000195356 0.0109273 0 0 0 2.96294e-17 1.34754e-17 -0.249015 1.54325e-19 7.01869e-20 -0.000290809 -2.20073e-15 4.8389e-15 -3.50111e-29 0.001415 
4852 1 -0.0576017 0.00160357 0.0116883 0 0 0 5.29944e-17 8.69526e-17 -0.249015 4.44123e-19 7.28712e-19 -0.000290809 -1.754e-14 1.069e-14 7.84247e-28 0.001415 
9744 1 -0.0476714 0.00124731 0.0126089 0 0 0 3.31118e-17 3.77171e-17 -0.249015 2.93798e-19 3.34661e-19 -0.000290809 -1.77373e-14 1.55716e-14 1.34433e-27 0.001415 
2456 1 0.0231999 0.00341526 0.0118559 0 0 0 -3.82189e-16 2.40349e-16 -0.249015 -5.59854e-19 3.52077e-19 -0.000290809 6.01465e-15 9.56418e-15 -3.62647e-28 0.001415 
1469 1 -0.0554428 0.00427207 0.0124878 0 0 0 8.12751e-16 7.8321e-16 -0.249015 1.87372e-18 1.80562e-18 -0.000290809 1.85471e-14 -1.92467e-14 2.18808e-28 0.001415 
6444 1 -0.0485008 0.00805 0.0121782 0 0 0 -8.36236e-17 1.01873e-16 -0.249015 -7.08897e-19 8.63603e-19 -0.000290809 -2.332e-14 -1.91425e-14 -1.44913e-27 0.001415 
5546 1 -0.0286421 0.00814112 0.0126352 0 0 0 -1.48013e-15 -8.09207e-16 -0.249015 -4.8033e-18 -2.62603e-18 -0.000290809 -3.65157e-14 6.67912e-14 -3.99384e-27 0.001415 
7897 1 0.0202104 0.0106666 0.0120311 0 0 0 2.66156e-17 1.26866e-16 -0.249015 2.13774e-19 1.01898e-18 -0.000290809 -4.15525e-14 8.71741e-15 -2.0761e-29 0.001415 
4430 1 -0.0607358 0.0123237 0.0123159 0 0 0 -9.21737e-16 1.96904e-16 -0.249015 -2.01607e-18 4.30677e-19 -0.000290809 1.89287e-15 8.86082e-15 -1.0229e-28 0.001415 
5821 1 0.071151 0.0126674 0.0120182 0 0 0 -2.98219e-17 2.86639e-17 -0.249015 -1.03225e-18 9.92163e-19 -0.000290809 -1.20182e-15 -1.25037e-15 -2.45332e-28 0.001415 
1279 1 -0.00741294 0.0227247 0.0116297 0 0 0 -1.17269e-16 -4.34401e-17 -0.249015 -1.28235e-18 -4.75022e-19 -0.000290809 -1.97926e-16 5.34316e-16 -2.26511e-28 0.001415 
4218 1 0.00694369 0.0277865 0.012569 0 0 0 1.69151e-16 -1.25013e-15 -0.249015 1.11897e-19 -8.26995e-19 -0.000290809 -5.0837e-14 -6.87856e-15 4.77545e-28 0.001415 
9955 1 0.0480973 0.0295036 0.0110882 0 0 0 1.72826e-18 9.59838e-18 -0.249015 1.72259e-19 9.5669e-19 -0.000290809 -9.88275e-16 1.77946e-16 -9.95285e-29 0.001415 
6215 1 -0.0229502 0.0331509 0.0120332 0 0 0 -1.32704e-17 -6.17017e-17 -0.249015 -1.28808e-19 -5.98898e-19 -0.000290809 4.04642e-14 -8.70281e-15 -2.44652e-28 0.001415 
3967 1 -0.0257836 0.0351781 0.0122447 0 0 0 -3.37587e-16 1.05613e-15 -0.249015 -5.49253e-19 1.71832e-18 -0.000290809 2.07243e-14 6.62444e-15 -1.50394e-27 0.001415 
4099 1 0.0465216 0.0422608 0.0116664 0 0 0 3.81065e-17 -1.29571e-17 -0.249015 7.90754e-19 -2.68874e-19 -0.000290809 -9.44144e-16 -2.77671e-15 -6.37963e-28 0.001415 
9746 1 -0.0326219 0.0429159 0.0112791 0 0 0 1.78539e-17 -1.14985e-16 -0.249015 1.47724e-19 -9.51396e-19 -0.000290809 3.13341e-14 4.86527e-15 -7.12297e-28 0.001415 
486 1 0.0131757 0.0431015 0.0112636 0 0 0 1.26269e-16 -1.07026e-16 -0.249015 9.66371e-19 -8.19095e-19 -0.000290809 2.68517e-14 3.16797e-14 -4.25111e-28 0.001415 
4638 1 0.00148191 0.0455993 0.0118996 0 0 0 4.66318e-17 -2.51092e-17 -0.249015 2.14391e-18 -1.1544e-18 -0.000290809 -8.95937e-15 -1.6639e-14 1.27657e-27 0.001415 
7348 1 0.0388741 0.0496065 0.0121317 0 0 0 -4.08673e-17 -6.91103e-16 -0.249015 -8.6076e-20 -1.45562e-18 -0.000290809 3.59984e-15 -2.12871e-16 4.37428e-29 0.001415 
8316 1 0.0241447 0.055508 0.0118312 0 0 0 0 0 -0.249015 0 0 -0.000290809 0 0 0 0.001415 
4831 1 0.0293284 0.0560787 0.0123005 0 0 0 1.08191e-15 -6.01424e-16 -0.249015 3.22446e-18 -1.79245e-18 -0.000290809 -2.62158e-14 -4.71599e-14 3.60825e-28 0.001415 
6909 1 0.00964204 0.0590336 0.0123346 0 0 0 2.50779e-16 -1.51101e-16 -0.249015 1.67724e-18 -1.01058e-18 -0.000290809 4.45615e-14 7.39577e-14 -1.05908e-27 0.001415 
8757 1 0.00829498 0.0765507 0.0126895 0 0 0 0 0 -0.249015 0 0 -0.000290809 0 0 0 0.001415 
3317 1 0.00879117 -0.0741345 0.0132465 0 0 0 1.30777e-15 -4.18503e-16 -0.249015 9.80358e-19 -3.13728e-19 -0.000290809 -2.77064e-14 -8.65787e-14 -2.04408e-27 0.001415 
4537 1 0.0348065 -0.0668743 0.0132245 0 0 0 4.56652e-16 -8.893e-16 -0.249015 -4.40404e-22 8.57657e-22 -0.000290809 9.44149e-15 4.84817e-15 -4.63229e-29 0.001415 
5120 1 -0.00732864 -0.0640527 0.0129807 0 0 0 -5.02823e-16 -1.76992e-16 -0.249015 1.52866e-18 5.38085e-19 -0.000290809 2.74292e-15 -7.79245e-15 6.28165e-28 0.001415 
8902 1 0.00739974 -0.0547957 0.0138111 0 0 0 -1.6798e-16 1.41816e-15 -0.249015 1.02244e-19 -8.63188e-19 -0.000290809 8.22376e-15 9.74096e-16 2.81536e-28 0.001415 
4749 1 -0.0443437 -0.0522762 0.0137792 0 0 0 -1.08292e-15 1.58335e-16 -0.249015 8.53123e-19 -1.24736e-19 -0.000290809 1.37495e-15 9.40386e-15 1.25843e-28 0.001415 
6408 1 -0.0176936 -0.0536375 0.0130677 0 0 0 3.20761e-15 -9.35144e-16 -0.249015 1.82728e-17 -5.32724e-18 -0.000290809 -3.97194e-14 -1.3624e-13 -5.40345e-27 0.001415 
5039 1 0.0393096 -0.0515993 0.0128852 0 0 0 1.92141e-15 5.2758e-16 -0.249015 7.29486e-18 2.00302e-18 -0.000290809 1.95104e-14 -7.10553e-14 2.73364e-27 0.001415 
8420 1 -0.0130316 -0.0490822 0.0137559 0 0 0 4.62827e-16 -1.23584e-15 -0.249015 -3.10982e-19 8.30386e-19 -0.000290809 -9.19479e-15 -3.44348e-15 5.57739e-28 0.001415 
8293 1 0.0410995 -0.0444363 0.0128248 0 0 0 7.35281e-16 -1.74275e-15 -0.249015 1.81829e-18 -4.30968e-18 -0.000290809 -1.22848e-13 -5.18305e-14 -1.04334e-27 0.001415 
8782 1 0.00995582 -0.0396456 0.0127631 0 0 0 1.04364e-15 4.76104e-16 -0.249015 -9.43969e-19 -4.30633e-19 -0.000290809 1.08277e-14 -2.37348e-14 -9.35601e-28 0.001415 
1765 1 -0.00582286 -0.0341936 0.013518 0 0 0 1.27228e-15 -3.98146e-16 -0.249015 -1.22701e-21 3.83979e-22 -0.000290809 -1.5998e-14 -5.11221e-14 4.64319e-28 0.001415 
7142 1 -0.0430179 -0.0310366 0.0142351 0 0 0 -9.62881e-16 9.55755e-16 -0.249015 4.33626e-19 -4.30416e-19 -0.000290809 2.53328e-14 2.55216e-14 -1.84573e-28 0.001415 
6549 1 -0.00774795 -0.0294214 0.0142032 0 0 0 6.4312e-16 -1.04235e-16 -0.249015 -5.27531e-19 8.55003e-20 -0.000290809 7.98653e-16 4.92763e-15 3.26738e-29 0.001415 
2898 1 -0.0015393 -0.0260351 0.0137902 0 0 0 8.47831e-16 -1.6737e-16 -0.249015 -8.17663e-22 1.61415e-22 -0.000290809 -5.03166e-16 -2.54884e-15 -8.95295e-29 0.001415 
2604 1 -0.0264828 -0.0239558 0.0135147 0 0 0 2.12728e-15 -9.26208e-17 -0.249015 1.01171e-17 -4.40494e-19 -0.000290809 -4.41294e-15 -1.01355e-13 -7.24331e-29 0.001415 
7959 1 -0.0480224 -0.0227988 0.0141967 0 0 0 -1.34104e-15 8.36441e-16 -0.249015 1.29332e-21 -8.06678e-22 -0.000290809 2.46513e-14 3.95227e-14 2.38015e-27 0.001415 
8818 1 0.00968245 -0.0211851 0.0137394 0 0 0 4.28534e-17 1.31804e-15 -0.249015 -3.77798e-20 -1.16199e-18 -0.000290809 1.65068e-15 -5.36685e-17 -2.03253e-28 0.001415 
9789 1 -0.0179785 -0.0208985 0.0138553 0 0 0 -9.67285e-16 -1.20279e-15 -0.249015 7.2883e-19 9.06277e-19 -0.000290809 -1.68112e-14 1.35196e-14 9.69461e-28 0.001415 
4471 1 -0.0206599 -0.0174716 0.0141118 0 0 0 -3.17762e-16 1.0862e-15 -0.249015 3.62376e-19 -1.23871e-18 -0.000290809 -8.29987e-15 -2.42808e-15 -2.68993e-28 0.001415 
1404 1 0.0175339 -0.0189217 0.0139916 0 0 0 -1.13183e-15 -3.31119e-16 -0.249015 1.44913e-18 4.23946e-19 -0.000290809 5.55184e-16 -1.89773e-15 3.74275e-28 0.001415 
8586 1 -0.0404855 -0.0156313 0.0146016 0 0 0 -6.84728e-17 9.04275e-16 -0.249015 -2.27243e-19 3.00105e-18 -0.000290809 -5.33364e-14 -4.0387e-15 -1.884e-28 0.001415 
4388 1 -0.00265555 -0.0161876 0.013228 0 0 0 5.39571e-16 -2.63035e-16 -0.249015 -6.10714e-19 2.97716e-19 -0.000290809 1.83012e-15 3.75419e-15 -1.36513e-29 0.001415 
2097 1 -0.0180782 -0.0116116 0.0135287 0 0 0 1.47473e-15 2.67573e-16 -0.249015 -1.42225e-21 -2.58053e-22 -0.000290809 8.10357e-15 -4.46627e-14 -1.64084e-27 0.001415 
5435 1 0.0233242 -0.0111485 0.0144652 0 0 0 5.19093e-16 -9.86355e-16 -0.249015 -6.11794e-19 1.1625e-18 -0.000290809 -1.86978e-15 -9.84016e-16 -4.12831e-28 0.001415 
9887 1 -0.0551901 -0.00373509 0.0128247 0 0 0 3.61462e-16 -4.5146e-16 -0.249015 -1.1305e-18 1.41197e-18 -0.000290809 6.66539e-15 5.33665e-15 -1.38669e-28 0.001415 
4853 1 -0.0586257 -7.65915e-05 0.0137223 0 0 0 7.35187e-16 1.20629e-15 -0.249015 -4.44883e-19 -7.29959e-19 -0.000290809 5.62571e-15 -3.42866e-15 -1.29331e-27 0.001415 
9743 1 -0.0492029 -0.00049722 0.0142275 0 0 0 6.45285e-16 7.35034e-16 -0.249015 -2.94452e-19 -3.35406e-19 -0.000290809 1.75791e-14 -1.54327e-14 2.35015e-27 0.001415 
3403 1 0.0399954 0.00144601 0.0127438 0 0 0 -1.69769e-15 8.03383e-17 -0.249015 -6.75654e-18 3.19734e-19 -0.000290809 3.4019e-15 7.18881e-14 -5.73602e-28 0.001415 
3526 1 0.0549212 0.000551996 0.0131068 0 0 0 -1.4733e-15 -6.70055e-16 -0.249015 1.42087e-21 6.46213e-22 -0.000290809 -2.19826e-14 4.83346e-14 -1.36594e-27 0.001415 
3843 1 -0.0432547 0.00201405 0.0133293 0 0 0 1.21461e-15 8.27589e-16 -0.249015 -1.17139e-21 -7.98142e-22 -0.000290809 1.69868e-14 -2.49306e-14 2.01314e-27 0.001415 
2455 1 0.0236249 0.00314802 0.0146411 0 0 0 2.37151e-16 -1.49138e-16 -0.249015 8.00113e-19 -5.03169e-19 -0.000290809 6.89563e-15 1.09651e-14 -3.25676e-28 0.001415 
6238 1 0.0476834 0.00358837 0.0128648 0 0 0 2.13619e-15 -1.37446e-15 -0.249015 7.44318e-18 -4.78907e-18 -0.000290809 -5.95881e-14 -9.26119e-14 9.89956e-28 0.001415 
7479 1 0.00708078 0.00479504 0.0127716 0 0 0 -7.22565e-16 7.32726e-16 -0.249015 5.81544e-19 -5.89722e-19 -0.000290809 2.65141e-15 2.61464e-15 2.86604e-28 0.001415 
6443 1 -0.0474965 0.00682656 0.0145242 0 0 0 -8.07827e-16 9.84123e-16 -0.249015 8.07571e-19 -9.8381e-19 -0.000290809 9.72781e-15 7.98517e-15 -1.4037e-28 0.001415 
7898 1 0.0197791 0.00861083 0.0139276 0 0 0 2.78297e-16 1.32653e-15 -0.249015 -2.14068e-19 -1.02038e-18 -0.000290809 1.16888e-14 -2.45223e-15 -4.82609e-28 0.001415 
4366 1 0.0434972 0.010956 0.0129427 0 0 0 -7.92569e-16 7.14955e-16 -0.249015 8.37343e-19 -7.55344e-19 -0.000290809 2.61028e-15 2.89364e-15 -5.49715e-28 0.001415 
1176 1 0.023371 0.01534 0.0139291 0 0 0 1.79907e-17 1.52443e-15 -0.249015 -1.73505e-23 -1.47018e-21 -0.000290809 2.40532e-14 -2.83867e-16 -5.20564e-30 0.001415 
4344 1 0.0486622 0.0138541 0.0132357 0 0 0 -1.28229e-15 -4.50699e-16 -0.249015 9.57666e-19 3.36601e-19 -0.000290809 -2.83789e-15 8.07411e-15 5.27756e-28 0.001415 
5822 1 0.0700663 0.01371 0.0144152 0 0 0 1.10305e-15 -1.06022e-15 -0.249015 -1.06381e-21 1.02249e-21 -0.000290809 -2.64084e-14 -2.74754e-14 9.19591e-28 0.001415 
9808 1 -0.0411335 0.0170646 0.0144604 0 0 0 1.07637e-15 -8.87727e-16 -0.249015 -1.03807e-21 8.5614e-22 -0.000290809 -3.42591e-14 -4.15391e-14 2.9904e-27 0.001415 
5629 1 -0.00809486 0.0186934 0.013109 0 0 0 1.97264e-15 3.45086e-17 -0.249015 9.0066e-18 1.57558e-19 -0.000290809 1.91568e-15 -1.09507e-13 4.45894e-28 0.001415 
9993 1 -0.0262716 0.020692 0.0132043 0 0 0 -7.86022e-16 -7.50884e-16 -0.249015 8.88919e-19 8.49181e-19 -0.000290809 -6.95219e-15 7.27752e-15 3.46744e-30 0.001415 
1278 1 -0.00656497 0.0230388 0.0143113 0 0 0 -8.0979e-16 -2.9997e-16 -0.249015 1.28325e-18 4.75353e-19 -0.000290809 5.48129e-15 -1.47971e-14 -2.12169e-29 0.001415 
3553 1 0.038325 0.0241144 0.0132066 0 0 0 -1.91789e-16 1.12199e-15 -0.249015 1.31475e-19 -7.69139e-19 -0.000290809 1.14217e-14 1.95239e-15 7.5023e-28 0.001415 
2811 1 0.0616855 0.0236687 0.0128257 0 0 0 2.38763e-16 1.21146e-15 -0.249015 -2.53474e-19 -1.28611e-18 -0.000290809 -2.0954e-15 4.12975e-16 -1.09059e-28 0.001415 
9956 1 0.047731 0.0274693 0.0130211 0 0 0 3.85873e-16 2.14305e-15 -0.249015 1.47093e-18 8.16924e-18 -0.000290809 6.03758e-14 -1.08711e-14 5.82145e-28 0.001415 
6007 1 0.0347873 0.0296881 0.012791 0 0 0 3.83121e-16 4.29278e-16 -0.249015 -3.69489e-22 -4.14003e-22 -0.000290809 -2.63586e-15 2.35245e-15 1.33562e-29 0.001415 
8774 1 0.0137081 0.0323084 0.0134647 0 0 0 -2.35514e-16 3.96362e-16 -0.249015 2.52034e-19 -4.24163e-19 -0.000290809 -4.98619e-15 -2.96274e-15 -1.04719e-28 0.001415 
6214 1 -0.0224995 0.0352466 0.0138809 0 0 0 -2.78171e-16 -1.29337e-15 -0.249015 1.58063e-19 7.34922e-19 -0.000290809 -1.64134e-14 3.53009e-15 1.13213e-27 0.001415 