ITEM: TIMESTEP
140000
ITEM: NUMBER OF ATOMS
10248
ITEM: BOX BOUNDS ff ff ff
-0.2 0.2
-0.2 0.2
-0.01 0.5
ITEM: ATOMS id type x y z ix iy iz vx vy vz fx fy fz omegax omegay omegaz radius 
168 1 0.0236584 -0.0379934 0.00141369 0 0 0 0.0204254 0.272628 0.00110373 0.00184377 0.0246097 3.77023e-05 -192.798 14.4445 5.71473e-12 0.001415 
5124 1 -0.00943529 -0.0647942 0.00240727 0 0 0 -1.07555e-17 -3.78591e-18 -0.22745 9.92418e-24 3.49328e-24 -0.00029084 2.4354e-16 -6.91882e-16 1.49152e-32 0.001415 
9891 1 -0.0536741 -0.00562861 0.00229174 0 0 0 7.12621e-18 -8.90052e-18 -0.22745 -6.57539e-24 8.21255e-24 -0.00029084 6.62937e-16 5.30781e-16 -2.89624e-31 0.001415 
8778 1 0.0127785 0.033873 0.00281605 0 0 0 -4.29732e-18 7.23223e-18 -0.22745 3.96516e-24 -6.67321e-24 -0.00029084 -4.43924e-16 -2.63775e-16 3.68622e-31 0.001415 
5123 1 -0.00890863 -0.0646088 0.00518164 0 0 0 9.81917e-18 3.45632e-18 -0.22745 -9.0602e-24 -3.18916e-24 -0.00029084 2.42091e-16 -6.87764e-16 1.77194e-32 0.001415 
167 1 0.0236202 -0.0385034 0.00419444 0 0 0 0.0140059 0.186944 -0.0124797 0.00139249 0.0185863 -0.00107773 254.206 -19.0452 3.14234e-12 0.001415 
5439 1 0.0255064 -0.015295 0.00468461 0 0 0 6.69736e-19 -1.2726e-18 -0.22745 -6.17969e-25 1.17423e-24 -0.00029084 -5.23893e-18 -2.75711e-18 2.22092e-33 0.001415 
9890 1 -0.0540531 -0.00515523 0.005056 0 0 0 -6.2142e-18 7.76144e-18 -0.22745 5.73388e-24 -7.16152e-24 -0.00029084 6.5693e-16 5.25972e-16 -2.89944e-31 0.001415 
4096 1 0.0493328 0.0413049 0.00423662 0 0 0 1.26332e-17 -4.29557e-18 -0.22745 1.24115e-19 -4.22018e-20 -0.00029084 -4.53412e-16 -1.33348e-15 3.11486e-30 0.001415 
4641 1 -0.00200478 0.0474767 0.00491381 0 0 0 -2.10639e-18 1.1342e-18 -0.22745 1.94357e-24 -1.04653e-24 -0.00029084 5.34847e-18 9.93297e-18 -2.46527e-33 0.001415 
166 1 0.0235799 -0.0390417 0.00696981 0 0 0 -0.00686139 -0.0915827 -0.0645782 -0.000447161 -0.0059685 -0.00665377 -53.8488 4.03436 -8.38465e-12 0.001415 
8779 1 0.0136066 -0.0379801 0.0058054 0 0 0 1.14879e-19 5.24071e-20 -0.22745 -1.05999e-25 -4.83563e-26 -0.00029084 -4.07805e-19 8.93928e-19 -5.00748e-34 0.001415 
6552 1 -0.00600865 -0.0297033 0.00642216 0 0 0 7.94142e-19 -1.28712e-19 -0.22745 -7.32759e-25 1.18763e-25 -0.00029084 -4.68464e-19 -2.89039e-18 -2.0409e-34 0.001415 
1407 1 0.0135434 -0.0200891 0.0071135 0 0 0 -6.80084e-19 -1.9896e-19 -0.22745 6.27517e-25 1.83581e-25 -0.00029084 -4.80045e-19 1.64089e-18 -6.5485e-34 0.001415 
4516 1 0.00201022 -0.00437069 0.00584209 0 0 0 -1.07229e-18 1.2801e-18 -0.22745 9.89406e-25 -1.18115e-24 -0.00029084 4.6944e-18 3.93232e-18 -1.24811e-32 0.001415 
5818 1 0.0744051 0.00953964 0.00535154 0 0 0 2.36858e-19 -2.2766e-19 -0.22745 -2.1855e-25 2.10063e-25 -0.00029084 -2.53177e-19 -2.63406e-19 -1.71779e-34 0.001415 
6447 1 -0.0515136 0.0117203 0.00566447 0 0 0 -1.10172e-18 1.34216e-18 -0.22745 1.01657e-24 -1.23842e-24 -0.00029084 4.42228e-18 3.63008e-18 -1.38188e-32 0.001415 
4347 1 0.0446345 0.0124385 0.00642125 0 0 0 -7.28271e-19 -2.55973e-19 -0.22745 6.71979e-25 2.36187e-25 -0.00029084 -2.68496e-19 7.63902e-19 -3.25078e-35 0.001415 
9996 1 -0.0293411 0.0177597 0.00637591 0 0 0 -1.75254e-18 -1.67419e-18 -0.22745 1.61707e-24 1.54479e-24 -0.00029084 -7.583e-18 7.93785e-18 1.07763e-32 0.001415 
1281 1 -0.00910888 0.0220965 0.00679049 0 0 0 -7.20028e-19 -2.6672e-19 -0.22745 6.64374e-25 2.46104e-25 -0.00029084 -8.97958e-19 2.4241e-18 -9.39094e-34 0.001415 
4221 1 0.00751144 0.0235905 0.00573434 0 0 0 3.08432e-20 -2.27951e-19 -0.22745 -2.84592e-26 2.10332e-25 -0.00029084 4.1462e-19 5.61007e-20 1.08547e-34 0.001415 
3550 1 0.0375782 0.0284832 0.0064894 0 0 0 -1.07711e-18 6.30119e-18 -0.22745 9.93854e-25 -5.81414e-24 -0.00029084 3.71254e-17 6.34612e-18 -1.16596e-32 0.001415 
2814 1 0.0624335 0.0274639 0.00579226 0 0 0 1.42413e-19 7.22591e-19 -0.22745 -1.31405e-25 -6.66738e-25 -0.00029084 1.17356e-18 -2.31292e-19 1.95763e-33 0.001415 
8777 1 0.0130109 0.0334818 0.00560923 0 0 0 4.09754e-18 -6.896e-18 -0.22745 -3.78082e-24 6.36298e-24 -0.00029084 -4.43151e-16 -2.63316e-16 3.68501e-31 0.001415 
484 1 0.0153265 0.0412785 0.00687991 0 0 0 2.85374e-18 -2.41883e-18 -0.22745 -2.63316e-24 2.23187e-24 -0.00029084 -1.26408e-17 -1.49137e-17 1.11458e-32 0.001415 
4097 1 0.0483957 0.0416236 0.00688791 0 0 0 -1.11737e-17 3.7993e-18 -0.22745 -1.24116e-19 4.22022e-20 -0.00029084 -4.54932e-16 -1.33795e-15 3.1134e-30 0.001415 
7350 1 0.0388042 0.0484249 0.00712097 0 0 0 -4.44022e-21 -7.50882e-20 -0.22745 4.09701e-27 6.92842e-26 -0.00029084 2.59547e-19 -1.53479e-20 3.67247e-36 0.001415 
5122 1 -0.00838197 -0.0644234 0.00795602 0 0 0 2.15954e-19 7.6015e-20 -0.22745 -1.31223e-20 -4.61902e-21 -0.00029084 1.09475e-16 -3.11012e-16 -4.1241e-30 0.001415 
9219 1 -0.0350531 -0.0474779 0.00867963 0 0 0 0 0 -0.22745 0 0 -0.00029084 0 0 0 0.001415 
8295 1 0.0424827 -0.0477148 0.00894735 0 0 0 0 0 -0.22745 0 0 -0.00029084 0 0 0 0.001415 
8780 1 0.0123897 -0.0385353 0.00829935 0 0 0 2.79277e-17 1.27404e-17 -0.22745 2.82308e-19 1.28787e-19 -0.00029084 -2.36533e-15 5.18492e-15 -1.96185e-30 0.001415 
8589 1 -0.0402517 -0.0187189 0.00722046 0 0 0 5.78179e-20 -7.63564e-19 -0.22745 -5.33489e-26 7.04544e-25 -0.00029084 3.63264e-18 2.75068e-19 -1.53623e-32 0.001415 
5438 1 0.0249608 -0.0142584 0.00726079 0 0 0 1.44115e-16 -2.7384e-16 -0.22745 3.44993e-18 -6.55539e-18 -0.00029084 -3.8481e-15 -2.02516e-15 -2.09556e-30 0.001415 
2100 1 -0.012979 -0.0106864 0.00732811 0 0 0 3.25925e-16 5.91356e-17 -0.22745 7.90253e-18 1.43383e-18 -0.00029084 -8.36594e-16 4.61088e-15 1.96661e-29 0.001415 
9889 1 -0.0544321 -0.00468185 0.00782027 0 0 0 -9.12002e-19 1.13908e-18 -0.22745 8.41509e-25 -1.05103e-24 -0.00029084 -6.00697e-18 -4.80949e-18 -3.20192e-34 0.001415 
4517 1 0.00302288 -0.0055796 0.00819197 0 0 0 1.07229e-18 -1.2801e-18 -0.22745 -9.89406e-25 1.18115e-24 -0.00029084 4.6944e-18 3.93232e-18 -1.24811e-32 0.001415 
7477 1 0.00556963 0.00632744 0.00806087 0 0 0 0 0 -0.22745 0 0 -0.00029084 0 0 0 0.001415 
6446 1 -0.0505093 0.0104969 0.00801043 0 0 0 -2.88989e-18 3.52056e-18 -0.22745 -4.14064e-20 5.04427e-20 -0.00029084 9.10391e-17 7.47304e-17 1.30534e-30 0.001415 
5819 1 0.0733204 0.0105822 0.00774848 0 0 0 -2.36824e-19 2.27627e-19 -0.22745 2.18519e-25 -2.10033e-25 -0.00029084 -2.38319e-19 -2.47948e-19 9.03024e-35 0.001415 
4368 1 0.0417993 0.0124877 0.00828928 0 0 0 0 0 -0.22745 0 0 -0.00029084 0 0 0 0.001415 
4346 1 0.0459771 0.0129104 0.00886742 0 0 0 -1.02429e-17 -3.60019e-18 -0.22745 -1.11183e-19 -3.90785e-20 -0.00029084 -3.54352e-16 1.00817e-15 -2.13982e-30 0.001415 
9995 1 -0.0283179 0.0187371 0.00882676 0 0 0 1.75254e-18 1.67419e-18 -0.22745 -1.61707e-24 -1.54479e-24 -0.00029084 -7.583e-18 7.93785e-18 1.07763e-32 0.001415 
4220 1 0.00732219 0.0249892 0.00818725 0 0 0 1.61415e-18 -1.19296e-17 -0.22745 1.82012e-20 -1.34518e-19 -0.00029084 -8.06737e-16 -1.09156e-16 1.26765e-30 0.001415 
2813 1 0.0621842 0.0261988 0.00831145 0 0 0 1.45536e-18 7.38435e-18 -0.22745 1.85581e-20 9.41624e-20 -0.00029084 3.66375e-16 -7.22075e-17 3.79939e-31 0.001415 
3551 1 0.0378271 0.027027 0.00890315 0 0 0 1.07711e-18 -6.30119e-18 -0.22745 -9.93854e-25 5.81414e-24 -0.00029084 3.71254e-17 6.34612e-18 -1.16596e-32 0.001415 
8776 1 0.0132433 0.0330907 0.00840242 0 0 0 -7.74299e-19 1.30312e-18 -0.22745 -1.16187e-20 1.95539e-20 -0.00029084 1.09353e-16 6.49764e-17 8.25173e-31 0.001415 
3969 1 -0.0266131 0.0377733 0.00780773 0 0 0 -1.56544e-17 4.89744e-17 -0.22745 -1.01434e-19 3.17332e-19 -0.00029084 -5.65976e-15 -1.80912e-15 7.30766e-30 0.001415 
7875 1 -0.0151895 0.0366812 0.00820866 0 0 0 4.20004e-18 4.968e-18 -0.22745 4.35673e-20 5.15333e-20 -0.00029084 5.51777e-16 -4.66484e-16 2.20263e-31 0.001415 
4640 1 -0.000842548 0.0468509 0.00741711 0 0 0 -3.80522e-16 2.04895e-16 -0.22745 -9.0986e-18 4.8992e-18 -0.00029084 -4.97514e-16 -9.23963e-16 -3.88869e-30 0.001415 
5121 1 -0.0078553 -0.064238 0.0107304 0 0 0 -1.78949e-17 -6.29895e-18 -0.22745 -4.79407e-19 -1.6875e-19 -0.00029084 -9.03448e-17 2.56664e-16 1.05394e-28 0.001415 
6406 1 -0.013834 -0.0547628 0.00960775 0 0 0 1.57004e-17 -4.57727e-18 -0.22745 1.55733e-19 -4.54023e-20 -0.00029084 -3.73193e-16 -1.28008e-15 1.02244e-30 0.001415 
4747 1 -0.048396 -0.0516837 0.0103965 0 0 0 -4.68734e-17 6.85343e-18 -0.22745 -4.69619e-19 6.86636e-20 -0.00029084 -1.14321e-16 -7.81888e-16 -2.60297e-30 0.001415 
8904 1 0.00698378 -0.051284 0.0099159 0 0 0 0 0 -0.22745 0 0 -0.00029084 0 0 0 0.001415 
9218 1 -0.0344149 -0.0491301 0.0108869 0 0 0 -1.0578e-17 2.73809e-17 -0.22745 -1.76886e-19 4.57864e-19 -0.00029084 -5.15393e-15 -1.99111e-15 -7.02793e-29 0.001415 
8781 1 0.0111727 -0.0390904 0.0107933 0 0 0 -2.14006e-17 -9.76285e-18 -0.22745 3.40566e-19 1.55364e-19 -0.00029084 -3.20235e-15 7.01972e-15 -1.73541e-29 0.001415 
165 1 0.0235437 -0.0395243 0.00975543 0 0 0 -0.00177432 -0.0236827 -0.0505592 6.5444e-05 0.000873516 -0.00544113 4.87513 -0.365246 -7.00392e-14 0.001415 
6551 1 -0.00658842 -0.0296093 0.00919054 0 0 0 3.96337e-18 -6.42369e-19 -0.22745 4.70474e-20 -7.62528e-21 -0.00029084 -7.33926e-17 -4.52827e-16 1.68446e-31 0.001415 
9787 1 -0.0202299 -0.023698 0.0100057 0 0 0 -6.7614e-18 -8.40759e-18 -0.22745 -7.27407e-20 -9.04507e-20 -0.00029084 -5.17414e-16 4.16106e-16 -9.17737e-30 0.001415 
1406 1 0.0148736 -0.0197 0.00958092 0 0 0 6.80084e-19 1.9896e-19 -0.22745 -6.27517e-25 -1.83581e-25 -0.00029084 -4.80045e-19 1.64089e-18 -6.5485e-34 0.001415 
8588 1 -0.0403296 -0.0176897 0.00985553 0 0 0 5.92886e-18 -7.82985e-17 -0.22745 1.03014e-19 -1.36043e-18 -0.00029084 1.04301e-14 7.89776e-16 9.14678e-29 0.001415 
4389 1 -0.00210167 -0.0164576 0.01099 0 0 0 1.08179e-17 -5.2736e-18 -0.22745 3.67417e-19 -1.79112e-19 -0.00029084 1.30466e-16 2.67628e-16 -3.16499e-29 0.001415 
8820 1 0.00980992 -0.0172644 0.0101833 0 0 0 0 0 -0.22745 0 0 -0.00029084 0 0 0 0.001415 
3529 1 0.0670132 -0.0166749 0.0104833 0 0 0 0 0 -0.22745 0 0 -0.00029084 0 0 0 0.001415 
4473 1 -0.0215554 -0.0144106 0.00996 0 0 0 0 0 -0.22745 0 0 -0.00029084 0 0 0 0.001415 
5437 1 0.0244153 -0.0132218 0.00983697 0 0 0 -1.28178e-16 2.43557e-16 -0.22745 -3.10464e-18 5.89928e-18 -0.00029084 -1.87849e-16 -9.88602e-17 -9.94053e-32 0.001415 
2099 1 -0.0146787 -0.0109948 0.00956969 0 0 0 -3.12739e-16 -5.67431e-17 -0.22745 -7.4391e-18 -1.34974e-18 -0.00029084 -6.28774e-16 3.46548e-15 1.35831e-29 0.001415 
4518 1 0.00403554 -0.00678852 0.0105419 0 0 0 -2.88187e-17 3.44037e-17 -0.22745 -4.45588e-19 5.31943e-19 -0.00029084 -1.02719e-14 -8.60437e-15 -3.18266e-28 0.001415 
9888 1 -0.0548111 -0.00420847 0.0105845 0 0 0 1.04589e-17 -1.3063e-17 -0.22745 2.95526e-19 -3.69107e-19 -0.00029084 4.49314e-16 3.59744e-16 3.07121e-29 0.001415 
3528 1 0.0516347 -0.000942708 0.00927196 0 0 0 -1.7515e-17 -7.96582e-18 -0.22745 -1.72979e-19 -7.86709e-20 -0.00029084 -7.47615e-16 1.64383e-15 -2.50216e-30 0.001415 
2457 1 0.0227749 0.00368251 0.00959494 0 0 0 0 0 -0.22745 0 0 -0.00029084 0 0 0 0.001415 
1470 1 -0.0541433 0.00552442 0.0108321 0 0 0 3.42039e-17 3.29607e-17 -0.22745 5.31932e-19 5.12598e-19 -0.00029084 -1.02329e-14 1.06188e-14 -8.69092e-29 0.001415 
7478 1 0.0063252 0.00556124 0.0106783 0 0 0 -3.82751e-18 3.88133e-18 -0.22745 -3.58387e-19 3.63427e-19 -0.00029084 -5.46837e-16 -5.39254e-16 -2.84024e-29 0.001415 
5545 1 -0.0302182 0.00727945 0.0109724 0 0 0 0 0 -0.22745 0 0 -0.00029084 0 0 0 0.001415 
6445 1 -0.0495051 0.00927345 0.0103564 0 0 0 -3.52694e-19 4.29664e-19 -0.22745 -1.12702e-20 1.37298e-20 -0.00029084 2.79263e-16 2.29236e-16 1.3351e-30 0.001415 
4431 1 -0.0620527 0.012605 0.0103509 0 0 0 -4.61462e-17 9.85786e-18 -0.22745 -6.95901e-19 1.4866e-19 -0.00029084 -2.195e-15 -1.02751e-14 -2.3502e-29 0.001415 
4367 1 0.0426483 0.0117219 0.010878 0 0 0 -2.28095e-17 2.05758e-17 -0.22745 -6.45966e-19 5.82709e-19 -0.00029084 -2.87941e-15 -3.19199e-15 -6.94767e-30 0.001415 
5820 1 0.0722357 0.0116248 0.0101454 0 0 0 8.81783e-18 -8.47541e-18 -0.22745 8.72772e-20 -8.3888e-20 -0.00029084 -8.31883e-16 -8.65493e-16 -6.61619e-30 0.001415 
1280 1 -0.00826091 0.0224106 0.00947213 0 0 0 7.20028e-19 2.6672e-19 -0.22745 -6.64374e-25 -2.46104e-25 -0.00029084 -8.97958e-19 2.4241e-18 -9.39094e-34 0.001415 
2812 1 0.0619348 0.0249338 0.0108306 0 0 0 6.01309e-18 3.05099e-17 -0.22745 1.8793e-19 9.53541e-19 -0.00029084 -4.76786e-15 9.39681e-16 -2.66093e-29 0.001415 
4219 1 0.00713294 0.0263879 0.0106402 0 0 0 4.12789e-18 -3.05077e-17 -0.22745 1.15303e-19 -8.52164e-19 -0.00029084 6.38976e-15 8.64575e-16 7.06027e-29 0.001415 
6216 1 -0.023401 0.0310553 0.0107096 0 0 0 -2.70909e-18 -1.25961e-17 -0.22745 -2.82225e-20 -1.31222e-19 -0.00029084 -7.73967e-16 1.6646e-16 2.51127e-30 0.001415 
3968 1 -0.0261983 0.0364757 0.0102883 0 0 0 1.56544e-17 -4.89744e-17 -0.22745 1.01434e-19 -3.17332e-19 -0.00029084 -5.65976e-15 -1.80912e-15 7.30766e-30 0.001415 
7874 1 -0.0157052 0.0360712 0.0109236 0 0 0 -6.95181e-19 -8.22291e-19 -0.22745 2.82676e-19 3.34361e-19 -0.00029084 1.3468e-16 -1.13861e-16 -3.3138e-29 0.001415 
9745 1 -0.0323504 0.0411674 0.00959457 0 0 0 0 0 -0.22745 0 0 -0.00029084 0 0 0 0.001415 
485 1 0.0142511 0.04219 0.0093338 0 0 0 -2.85374e-18 2.41883e-18 -0.22745 2.63316e-24 -2.23187e-24 -0.00029084 -1.26408e-17 -1.49137e-17 1.11458e-32 0.001415 
4098 1 0.0474587 0.0419422 0.00953919 0 0 0 2.19469e-18 -7.46242e-19 -0.22745 3.83166e-20 -1.30285e-20 -0.00029084 -6.64552e-17 -1.95444e-16 -4.44797e-31 0.001415 
4639 1 0.000319678 0.0462251 0.0099204 0 0 0 3.59383e-16 -1.93512e-16 -0.22745 8.53225e-18 -4.59425e-18 -0.00029084 6.01903e-16 1.11783e-15 2.67666e-29 0.001415 
7349 1 0.0388392 0.0490157 0.0098884 0 0 0 -1.29635e-18 -2.19224e-17 -0.22745 -2.86696e-20 -4.84829e-19 -0.00029084 1.03917e-15 -6.14499e-17 -8.4834e-30 0.001415 
3318 1 0.0108764 -0.0748018 0.0119775 0 0 0 0 0 -0.22745 0 0 -0.00029084 0 0 0 0.001415 
6407 1 -0.0157638 -0.0542001 0.0115998 0 0 0 -1.57004e-17 4.57727e-18 -0.22745 -1.55733e-19 4.54023e-20 -0.00029084 -3.73193e-16 -1.28008e-15 1.02244e-30 0.001415 
4748 1 -0.0463698 -0.05198 0.0123499 0 0 0 8.90354e-18 -1.3018e-18 -0.22745 -3.16179e-19 4.62289e-20 -0.00029084 -2.84862e-15 -1.94829e-14 6.77697e-29 0.001415 
8903 1 0.00719176 -0.0530399 0.0121256 0 0 0 -4.30824e-18 3.63722e-17 -0.22745 -9.55033e-20 8.06283e-19 -0.00029084 -1.09376e-14 -1.29555e-15 8.27547e-29 0.001415 
8421 1 -0.0125515 -0.050364 0.011803 0 0 0 1.96694e-18 -5.25212e-18 -0.22745 1.85434e-19 -4.95147e-19 -0.00029084 1.32067e-15 4.94594e-16 -1.00777e-28 0.001415 
5040 1 0.0412118 -0.051077 0.0113801 0 0 0 0 0 -0.22745 0 0 -0.00029084 0 0 0 0.001415 
8294 1 0.0417911 -0.0460756 0.0111481 0 0 0 0 0 -0.22745 0 0 -0.00029084 0 0 0 0.001415 
164 1 0.0235066 -0.0400193 0.0125388 0 0 0 -0.00236772 -0.0316033 -0.049819 9.91804e-05 0.00132381 -0.00529369 0.534424 -0.0400391 -1.90117e-11 0.001415 
7141 1 -0.0440609 -0.0300013 0.0123406 0 0 0 0 0 -0.22745 0 0 -0.00029084 0 0 0 0.001415 
6550 1 -0.00716818 -0.0295154 0.0119589 0 0 0 -4.75751e-18 7.71081e-19 -0.22745 -4.70467e-20 7.62516e-21 -0.00029084 -7.29241e-17 -4.49936e-16 1.6865e-31 0.001415 
9788 1 -0.0191042 -0.0222982 0.0121926 0 0 0 -1.3495e-17 -1.67806e-17 -0.22745 -6.2587e-19 -7.7825e-19 -0.00029084 8.47125e-15 -6.8126e-15 4.11197e-28 0.001415 
1405 1 0.0162037 -0.0193109 0.0120483 0 0 0 -5.21021e-17 -1.52426e-17 -0.22745 -1.22849e-18 -3.59397e-19 -0.00029084 2.86464e-15 -9.79192e-15 -1.97217e-28 0.001415 
8819 1 0.00974619 -0.0192248 0.0122234 0 0 0 1.98992e-18 6.12038e-17 -0.22745 3.6799e-20 1.13182e-18 -0.00029084 -1.20259e-14 3.91e-16 -6.89188e-29 0.001415 
8587 1 -0.0404076 -0.0166605 0.0124906 0 0 0 4.85268e-17 -6.40861e-16 -0.22745 3.81679e-19 -5.04058e-18 -0.00029084 -1.21143e-15 -9.17309e-17 -3.12792e-29 0.001415 
4472 1 -0.0211077 -0.0159411 0.0122979 0 0 0 -2.15292e-17 7.35931e-17 -0.22745 -3.62069e-19 1.23765e-18 -0.00029084 -1.6263e-14 -4.75765e-15 -1.47351e-28 0.001415 
5436 1 0.0238697 -0.0121851 0.0124131 0 0 0 1.89297e-18 -3.59693e-18 -0.22745 1.12676e-19 -2.14102e-19 -0.00029084 8.13313e-15 4.28026e-15 6.22447e-29 0.001415 
2098 1 -0.0163785 -0.0113032 0.0118113 0 0 0 -1.3186e-17 -2.39246e-18 -0.22745 -4.63428e-19 -8.40841e-20 -0.00029084 2.07821e-16 -1.1454e-15 -6.08303e-30 0.001415 
4519 1 0.0050482 -0.00799743 0.0128917 0 0 0 -4.21456e-16 5.03134e-16 -0.22745 -3.52347e-18 4.20632e-18 -0.00029084 4.9118e-16 4.11443e-16 7.30281e-28 0.001415 
3527 1 0.053278 -0.000195356 0.0114514 0 0 0 1.7515e-17 7.96582e-18 -0.22745 1.72979e-19 7.86709e-20 -0.00029084 -7.47615e-16 1.64383e-15 -2.50216e-30 0.001415 
4852 1 -0.0576017 0.00160357 0.0122124 0 0 0 1.91299e-17 3.13881e-17 -0.22745 4.17668e-19 6.85304e-19 -0.00029084 -6.8895e-15 4.1989e-15 8.90106e-29 0.001415 
2456 1 0.0231999 0.00341526 0.0123801 0 0 0 -2.67194e-16 1.68031e-16 -0.22745 -1.91658e-18 1.20529e-18 -0.00029084 1.30148e-15 2.06955e-15 -5.39684e-29 0.001415 
6444 1 -0.0485008 0.00805 0.0127023 0 0 0 -2.63711e-17 3.21262e-17 -0.22745 -7.46229e-19 9.09081e-19 -0.00029084 -9.51749e-15 -7.81253e-15 -4.17147e-28 0.001415 
7897 1 0.0202104 0.0106666 0.0125552 0 0 0 1.02653e-17 4.89306e-17 -0.22745 2.03515e-19 9.70075e-19 -0.00029084 -1.35748e-14 2.84789e-15 -4.68432e-30 0.001415 
4430 1 -0.0607358 0.0123237 0.01284 0 0 0 -6.38173e-16 1.36328e-16 -0.22745 -4.68552e-18 1.00093e-18 -0.00029084 6.68083e-16 3.1274e-15 -5.67879e-29 0.001415 
4345 1 0.0473197 0.0133822 0.0113136 0 0 0 4.15432e-18 1.46016e-18 -0.22745 -5.29265e-19 -1.86026e-19 -0.00029084 3.54228e-16 -1.00782e-15 -2.91907e-29 0.001415 
5821 1 0.071151 0.0126674 0.0125424 0 0 0 -8.81786e-18 8.47544e-18 -0.22745 -8.72772e-20 8.3888e-20 -0.00029084 -8.31898e-16 -8.65508e-16 -6.61645e-30 0.001415 
9994 1 -0.0272948 0.0197145 0.0112776 0 0 0 -3.78664e-17 -3.61736e-17 -0.22745 -8.94395e-19 -8.54413e-19 -0.00029084 7.67328e-15 -8.03235e-15 1.06677e-28 0.001415 
1279 1 -0.00741294 0.0227247 0.0121538 0 0 0 -4.18976e-17 -1.55201e-17 -0.22745 -8.72754e-19 -3.23294e-19 -0.00029084 9.0569e-16 -2.44497e-15 -5.33109e-29 0.001415 
3552 1 0.038076 0.0255707 0.0113169 0 0 0 -3.76275e-18 2.20125e-17 -0.22745 -1.25877e-19 7.36393e-19 -0.00029084 -5.9507e-15 -1.0172e-15 8.31854e-29 0.001415 
9955 1 0.0480973 0.0295036 0.0116123 0 0 0 0 0 -0.22745 0 0 -0.00029084 0 0 0 0.001415 
6215 1 -0.0229502 0.0331509 0.0125573 0 0 0 -3.56139e-18 -1.65589e-17 -0.22745 -1.14976e-19 -5.34586e-19 -0.00029084 1.37893e-14 -2.96572e-15 -9.16953e-29 0.001415 
8775 1 0.0134757 0.0326995 0.0111956 0 0 0 -3.73964e-18 6.29368e-18 -0.22745 -1.47975e-19 2.49037e-19 -0.00029084 -2.34501e-16 -1.39339e-16 7.60054e-30 0.001415 
3967 1 -0.0257836 0.0351781 0.0127688 0 0 0 -2.29235e-16 7.17155e-16 -0.22745 -1.71959e-18 5.37968e-18 -0.00029084 4.18403e-15 1.3374e-15 -2.13305e-28 0.001415 
4099 1 0.0465216 0.0422608 0.0121905 0 0 0 3.32437e-19 -1.13036e-19 -0.22745 3.36187e-19 -1.14311e-19 -0.00029084 7.8479e-17 2.30806e-16 -9.46928e-30 0.001415 
9746 1 -0.0326219 0.0429159 0.0118032 0 0 0 6.57115e-18 -4.23206e-17 -0.22745 1.39662e-19 -8.99471e-19 -0.00029084 1.19821e-14 1.86047e-15 -7.49693e-29 0.001415 
486 1 0.0131757 0.0431015 0.0117877 0 0 0 5.07692e-17 -4.30319e-17 -0.22745 9.81545e-19 -8.31957e-19 -0.00029084 1.07193e-14 1.26466e-14 -9.52051e-30 0.001415 
4638 1 0.00148191 0.0455993 0.0124237 0 0 0 3.12764e-18 -1.6841e-18 -0.22745 -1.44577e-19 7.78484e-20 -0.00029084 -1.48259e-15 -2.75341e-15 1.42946e-28 0.001415 
7348 1 0.0388741 0.0496065 0.0126558 0 0 0 -2.73552e-17 -4.62602e-16 -0.22745 -2.3916e-19 -4.04441e-18 -0.00029084 6.58081e-15 -3.89146e-16 -2.56585e-30 0.001415 
8316 1 0.0241447 0.055508 0.0123553 0 0 0 0 0 -0.22745 0 0 -0.00029084 0 0 0 0.001415 
4831 1 0.0293284 0.0560787 0.0128246 0 0 0 7.09018e-16 -3.94137e-16 -0.22745 5.84907e-18 -3.25145e-18 -0.00029084 -1.00725e-14 -1.81195e-14 -8.04042e-28 0.001415 
6909 1 0.00964204 0.0590336 0.0128587 0 0 0 1.19136e-16 -7.17824e-17 -0.22745 1.73509e-18 -1.04544e-18 -0.00029084 1.68565e-14 2.79763e-14 -6.74665e-28 0.001415 
6048 1 -0.0014895 0.0671831 0.0112029 0 0 0 -4.24493e-17 -2.55087e-18 -0.22745 -1.09356e-18 -6.57143e-20 -0.00029084 4.81531e-16 -8.01321e-15 -3.96709e-29 0.001415 
3317 1 0.00879117 -0.0741345 0.0137706 0 0 0 1.13812e-15 -3.64214e-16 -0.22745 2.72046e-18 -8.70585e-19 -0.00029084 -8.81042e-15 -2.75314e-14 -1.18312e-27 0.001415 
4537 1 0.0348065 -0.0668743 0.0137486 0 0 0 4.04169e-16 -7.87093e-16 -0.22745 3.96882e-18 -7.72901e-18 -0.00029084 5.76126e-15 2.95839e-15 1.33769e-29 0.001415 
5120 1 -0.00732864 -0.0640527 0.0135048 0 0 0 -4.92586e-16 -1.73389e-16 -0.22745 -4.54656e-18 -1.60037e-18 -0.00029084 1.74852e-15 -4.96743e-15 1.29928e-28 0.001415 
8902 1 0.00739974 -0.0547957 0.0143353 0 0 0 -1.52336e-16 1.28609e-15 -0.22745 -1.6057e-18 1.35561e-17 -0.00029084 1.44853e-14 1.71577e-15 -5.95618e-30 0.001415 
4749 1 -0.0443437 -0.0522762 0.0143033 0 0 0 -9.96914e-16 1.4576e-16 -0.22745 -1.06258e-17 1.55361e-18 -0.00029084 4.03125e-15 2.75714e-14 -7.7755e-29 0.001415 
6408 1 -0.0176936 -0.0536375 0.0135918 0 0 0 1.42274e-15 -4.14783e-16 -0.22745 2.85112e-17 -8.31214e-18 -0.00029084 -6.82566e-15 -2.34125e-14 -7.10356e-28 0.001415 
9217 1 -0.0337766 -0.0507822 0.0130941 0 0 0 -2.69845e-16 6.98485e-16 -0.22745 -1.87873e-18 4.86304e-18 -0.00029084 5.00351e-16 1.933e-16 8.0114e-28 0.001415 
5039 1 0.0393096 -0.0515993 0.0134093 0 0 0 1.1214e-15 3.07913e-16 -0.22745 1.25866e-17 3.45602e-18 -0.00029084 3.79171e-15 -1.38091e-14 7.97216e-28 0.001415 
8420 1 -0.0130316 -0.0490822 0.01428 0 0 0 4.20461e-16 -1.12271e-15 -0.22745 4.15829e-18 -1.11035e-17 -0.00029084 -8.74352e-15 -3.27448e-15 9.78763e-28 0.001415 
8293 1 0.0410995 -0.0444363 0.0133489 0 0 0 5.13673e-16 -1.2175e-15 -0.22745 3.67315e-18 -8.70606e-18 -0.00029084 -3.51812e-14 -1.48432e-14 8.84003e-28 0.001415 
8782 1 0.00995582 -0.0396456 0.0132872 0 0 0 9.647e-16 4.40091e-16 -0.22745 9.41094e-18 4.29322e-18 -0.00029084 1.06455e-14 -2.33354e-14 -6.03712e-28 0.001415 
1765 1 -0.00582286 -0.0341936 0.0140421 0 0 0 1.10547e-15 -3.45943e-16 -0.22745 1.19723e-17 -3.74659e-18 -0.00029084 -1.16866e-14 -3.73448e-14 4.53794e-28 0.001415 
7142 1 -0.0430179 -0.0310366 0.0147592 0 0 0 -8.50178e-16 8.43886e-16 -0.22745 -8.82765e-18 8.76231e-18 -0.00029084 1.81384e-14 1.82737e-14 4.71799e-29 0.001415 
6549 1 -0.00774795 -0.0294214 0.0147273 0 0 0 5.82938e-16 -9.44805e-17 -0.22745 5.71018e-18 -9.25486e-19 -0.00029084 4.52345e-16 2.79094e-15 5.64572e-29 0.001415 
2898 1 -0.0015393 -0.0260351 0.0143143 0 0 0 7.49979e-16 -1.48053e-16 -0.22745 7.31327e-18 -1.44371e-18 -0.00029084 -5.64914e-16 -2.86163e-15 -3.10112e-29 0.001415 
1113 1 0.057839 -0.0250229 0.0131709 0 0 0 1.09982e-15 5.64259e-16 -0.22745 1.38316e-17 7.09626e-18 -0.00029084 7.59585e-15 -1.48054e-14 2.92124e-28 0.001415 
2604 1 -0.0264828 -0.0239558 0.0140388 0 0 0 1.12341e-15 -4.89129e-17 -0.22745 1.21995e-17 -5.31159e-19 -0.00029084 -1.72828e-15 -3.96945e-14 -3.9415e-29 0.001415 
7959 1 -0.0480224 -0.0227988 0.0147208 0 0 0 -1.16273e-15 7.25223e-16 -0.22745 -1.24529e-17 7.76717e-18 -0.00029084 1.64133e-14 2.63148e-14 1.58621e-27 0.001415 
8818 1 0.00968245 -0.0211851 0.0142635 0 0 0 3.95463e-17 1.21632e-15 -0.22745 4.15167e-19 1.27692e-17 -0.00029084 1.06441e-14 -3.46073e-16 -3.71083e-29 0.001415 
9789 1 -0.0179785 -0.0208985 0.0143794 0 0 0 -8.9183e-16 -1.10896e-15 -0.22745 -8.67936e-18 -1.07925e-17 -0.00029084 -2.21929e-14 1.78476e-14 -7.00492e-29 0.001415 
4471 1 -0.0206599 -0.0174716 0.0146359 0 0 0 -2.9931e-16 1.02313e-15 -0.22745 -3.11232e-18 1.06388e-17 -0.00029084 5.53383e-15 1.61889e-15 -1.91234e-29 0.001415 
1404 1 0.0175339 -0.0189217 0.0145157 0 0 0 -1.07271e-15 -3.13825e-16 -0.22745 -1.051e-17 -3.07472e-18 -0.00029084 -2.7012e-15 9.23324e-15 4.27384e-28 0.001415 
3530 1 0.0663652 -0.0174708 0.0131206 0 0 0 7.01428e-16 8.61493e-16 -0.22745 6.81496e-18 8.37012e-18 -0.00029084 5.40426e-15 -4.40015e-15 -9.43281e-28 0.001415 
4388 1 -0.00265555 -0.0161876 0.0137521 0 0 0 5.0752e-16 -2.4741e-16 -0.22745 4.77079e-18 -2.32571e-18 -0.00029084 1.64353e-15 3.37143e-15 5.20393e-29 0.001415 
2097 1 -0.0180782 -0.0116116 0.0140528 0 0 0 1.2933e-15 2.34655e-16 -0.22745 1.32862e-17 2.41064e-18 -0.00029084 5.95258e-15 -3.28076e-14 -6.20165e-28 0.001415 
9887 1 -0.0551901 -0.00373509 0.0133488 0 0 0 3.53669e-16 -4.41727e-16 -0.22745 3.28392e-18 -4.10157e-18 -0.00029084 4.29872e-15 3.44178e-15 -3.78704e-29 0.001415 
4853 1 -0.0586257 -7.65915e-05 0.0142464 0 0 0 6.66735e-16 1.09397e-15 -0.22745 7.11238e-18 1.16699e-17 -0.00029084 6.87058e-15 -4.18736e-15 -5.74378e-28 0.001415 
9743 1 -0.0492029 -0.00049722 0.0147516 0 0 0 5.80852e-16 6.61639e-16 -0.22745 6.24153e-18 7.10962e-18 -0.00029084 2.21363e-14 -1.94334e-14 9.07109e-28 0.001415 
9744 1 -0.0476714 0.00124731 0.013133 0 0 0 1.10606e-17 1.2599e-17 -0.22745 2.67124e-19 3.04277e-19 -0.00029084 -5.14398e-15 4.5159e-15 -1.15518e-28 0.001415 
3403 1 0.0399954 0.00144601 0.013268 0 0 0 -9.91873e-16 4.69376e-17 -0.22745 -1.10413e-17 5.22496e-19 -0.00029084 7.69602e-16 1.6263e-14 -9.37511e-29 0.001415 
3526 1 0.0549212 0.000551996 0.0136309 0 0 0 -1.28976e-15 -5.86582e-16 -0.22745 -1.33598e-17 -6.07605e-18 -0.00029084 -1.56768e-14 3.44696e-14 -1.31034e-27 0.001415 
3843 1 -0.0432547 0.00201405 0.0138534 0 0 0 1.05879e-15 7.21422e-16 -0.22745 1.14177e-17 7.77956e-18 -0.00029084 1.082e-14 -1.58799e-14 1.35096e-27 0.001415 
6238 1 0.0476834 0.00358837 0.0133889 0 0 0 1.29416e-15 -8.32682e-16 -0.22745 1.32385e-17 -8.5179e-18 -0.00029084 -1.48301e-14 -2.3049e-14 6.30728e-28 0.001415 
1469 1 -0.0554428 0.00427207 0.0130119 0 0 0 5.55956e-16 5.35749e-16 -0.22745 4.23727e-18 4.08326e-18 -0.00029084 7.95108e-15 -8.25097e-15 -1.89822e-28 0.001415 
7479 1 0.00708078 0.00479504 0.0132957 0 0 0 -6.68077e-16 6.77472e-16 -0.22745 -6.16285e-18 6.24951e-18 -0.00029084 1.60386e-15 1.58162e-15 3.36598e-28 0.001415 
5546 1 -0.0286421 0.00814112 0.0131593 0 0 0 -9.61312e-16 -5.25563e-16 -0.22745 -8.20119e-18 -4.48371e-18 -0.00029084 -1.3134e-14 2.40234e-14 -1.58637e-27 0.001415 
7898 1 0.0197791 0.00861083 0.0144517 0 0 0 2.54677e-16 1.21394e-15 -0.22745 2.66373e-18 1.26969e-17 -0.00029084 2.32699e-14 -4.88187e-15 -3.34359e-28 0.001415 
4366 1 0.0434972 0.010956 0.0134668 0 0 0 -7.4544e-16 6.72441e-16 -0.22745 -7.01524e-18 6.32826e-18 -0.00029084 3.66567e-15 4.06361e-15 -1.13109e-28 0.001415 
1176 1 0.023371 0.01534 0.0144532 0 0 0 1.57654e-17 1.33587e-15 -0.22745 1.60384e-19 1.359e-17 -0.00029084 1.70976e-14 -2.0178e-16 -7.9798e-32 0.001415 
4344 1 0.0486622 0.0138541 0.0137598 0 0 0 -1.17271e-15 -4.12184e-16 -0.22745 -1.15119e-17 -4.0462e-18 -0.00029084 -4.13672e-15 1.17694e-14 5.83512e-28 0.001415 
5629 1 -0.00809486 0.0186934 0.0136331 0 0 0 1.08935e-15 1.90567e-17 -0.22745 1.37182e-17 2.39981e-19 -0.00029084 6.94668e-16 -3.97098e-14 1.16967e-28 0.001415 
9993 1 -0.0262716 0.020692 0.0137285 0 0 0 -7.47936e-16 -7.14501e-16 -0.22745 -7.26066e-18 -6.93609e-18 -0.00029084 -1.36315e-14 1.42694e-14 7.744e-28 0.001415 
3553 1 0.038325 0.0241144 0.0137307 0 0 0 -1.77207e-16 1.03668e-15 -0.22745 -1.76552e-18 1.03285e-17 -0.00029084 1.55576e-14 2.65938e-15 2.56628e-28 0.001415 
2811 1 0.0616855 0.0236687 0.0133498 0 0 0 2.23131e-16 1.13215e-15 -0.22745 2.15675e-18 1.09432e-17 -0.00029084 4.46049e-15 -8.79102e-16 -2.47087e-28 0.001415 
4218 1 0.00694369 0.0277865 0.0130931 0 0 0 1.34674e-16 -9.95328e-16 -0.22745 6.6098e-19 -4.88507e-18 -0.00029084 -1.60705e-14 -2.17444e-15 1.23842e-28 0.001415 
9956 1 0.047731 0.0274693 0.0135453 0 0 0 2.1427e-16 1.19001e-15 -0.22745 2.79646e-18 1.55309e-17 -0.00029084 1.43923e-14 -2.59144e-15 -2.32436e-29 0.001415 
6007 1 0.0347873 0.0296881 0.0133151 0 0 0 3.40618e-16 3.81654e-16 -0.22745 3.32164e-18 3.72182e-18 -0.00029084 -1.5345e-15 1.36951e-15 4.92681e-29 0.001415 
8774 1 0.0137081 0.0323084 0.0139888 0 0 0 -2.21089e-16 3.72084e-16 -0.22745 -2.06021e-18 3.46726e-18 -0.00029084 -3.68605e-15 -2.19022e-15 -1.27288e-29 0.001415 
6214 1 -0.0224995 0.0352466 0.014405 0 0 0 -2.51207e-16 -1.168e-15 -0.22745 -2.69729e-18 -1.25412e-17 -0.00029084 -2.78535e-14 5.99056e-15 7.28041e-28 0.001415 
7873 1 -0.0162209 0.0354611 0.0136385 0 0 0 4.85482e-16 5.74249e-16 -0.22745 4.49707e-18 5.31933e-18 -0.00029084 -5.79986e-15 4.90332e-15 2.88977e-28 0.001415 
6847 1 -0.0500743 0.0395872 0.0137951 0 0 0 -1.14761e-15 4.94989e-16 -0.22745 -1.43074e-17 6.17111e-18 -0.00029084 1.77179e-14 4.10781e-14 -1.81101e-27 0.001415 
487 1 0.0121003 0.044013 0.0142416 0 0 0 7.72711e-16 -6.54949e-16 -0.22745 7.48129e-18 -6.34113e-18 -0.00029084 -7.72733e-15 -9.11673e-15 1.3144e-28 0.001415 
9747 1 -0.0328934 0.0446643 0.0140118 0 0 0 1.99309e-16 -1.28362e-15 -0.22745 2.09532e-18 -1.34946e-17 -0.00029084 -1.76219e-14 -2.73616e-15 3.05768e-29 0.001415 
8988 1 0.0105277 0.0515901 0.0144991 0 0 0 4.57261e-16 -6.46903e-16 -0.22745 5.16436e-18 -7.30619e-18 -0.00029084 -2.57939e-14 -1.82323e-14 -4.40145e-29 0.001415 
8315 1 0.0261215 0.0546907 0.0142081 0 0 0 -1.25387e-15 5.18383e-16 -0.22745 -1.34877e-17 5.5762e-18 -0.00029084 7.48205e-15 1.80976e-14 1.57637e-28 0.001415 
6908 1 0.00786074 0.0601069 0.0147781 0 0 0 9.82353e-16 -5.91894e-16 -0.22745 1.01661e-17 -6.12534e-18 -0.00029084 -4.81549e-15 -7.99215e-15 9.24147e-28 0.001415 
6047 1 -2.16486e-05 0.0672713 0.0136208 0 0 0 -1.25003e-15 -7.51168e-17 -0.22745 -1.22151e-17 -7.3403e-19 -0.00029084 -7.29003e-16 1.21314e-14 8.11089e-29 0.001415 
7455 1 0.00864732 0.0657086 0.0137671 0 0 0 -5.40662e-17 1.28212e-15 -0.22745 -5.79465e-19 1.37414e-17 -0.00029084 9.93263e-15 4.18851e-16 -3.35296e-29 0.001415 
8757 1 0.00829498 0.0765507 0.0132136 0 0 0 0 0 -0.22745 0 0 -0.00029084 0 0 0 0.001415 
3316 1 0.00670592 -0.0734672 0.0155638 0 0 0 -1.03569e-15 3.31434e-16 -0.22745 4.61658e-18 -1.47737e-18 -0.00029084 -7.77499e-15 -2.42958e-14 -9.62203e-28 0.001415 
4538 1 0.0344028 -0.0660881 0.016437 0 0 0 -3.93587e-16 7.66484e-16 -0.22745 -3.64406e-18 7.09657e-18 -0.00029084 3.91075e-15 2.00816e-15 2.32553e-28 0.001415 
5119 1 -0.00680198 -0.0638673 0.0162791 0 0 0 4.97697e-16 1.75188e-16 -0.22745 4.62326e-18 1.62737e-18 -0.00029084 1.5337e-15 -4.35715e-15 3.63889e-30 0.001415 