ITEM: TIMESTEP
45000
ITEM: NUMBER OF ATOMS
10248
ITEM: BOX BOUNDS ff ff ff
-0.2 0.2
-0.2 0.2
-0.01 0.5
ITEM: ATOMS id type x y z ix iy iz vx vy vz fx fy fz omegax omegay omegaz radius 
5124 1 -0.00943529 -0.0647942 0.00282173 0 0 0 -9.4106e-18 -3.3125e-18 -0.208823 -2.11907e-19 -7.45905e-20 -0.000290864 1.98212e-16 -5.63108e-16 5.96143e-33 0.001415 
168 1 0.0236553 -0.0380352 0.00175722 0 0 0 4.32998e-18 5.77945e-17 -0.208823 2.83233e-19 3.78046e-18 -0.000290864 -2.45002e-16 1.83556e-17 -3.33536e-31 0.001415 
9891 1 -0.0536741 -0.00562861 0.0027062 0 0 0 6.22397e-18 -7.77363e-18 -0.208823 1.3665e-19 -1.70674e-19 -0.000290864 5.39365e-16 4.31843e-16 -1.88277e-31 0.001415 
8778 1 0.0127785 0.033873 0.00323051 0 0 0 -3.7524e-18 6.31515e-18 -0.208823 -8.35929e-20 1.40684e-19 -0.000290864 -3.65747e-16 -2.17323e-16 2.45062e-31 0.001415 
167 1 0.0236183 -0.0385289 0.00454357 0 0 0 -3.92428e-18 -5.23794e-17 -0.208823 -2.67734e-19 -3.57359e-18 -0.000290864 -2.9681e-16 2.22371e-17 5.27288e-31 0.001415 
5439 1 0.0255064 -0.015295 0.00509907 0 0 0 6.69775e-19 -1.27267e-18 -0.208823 -5.93874e-25 1.12845e-24 -0.000290864 -5.23947e-18 -2.7574e-18 2.22115e-33 0.001415 
4096 1 0.0493328 0.0413049 0.00465108 0 0 0 4.25644e-18 -1.44728e-18 -0.208823 1.37416e-19 -4.67245e-20 -0.000290864 -3.44989e-17 -1.01461e-16 9.19441e-32 0.001415 
5123 1 -0.00890863 -0.0646088 0.0055961 0 0 0 8.47418e-18 2.98289e-18 -0.208823 2.11907e-19 7.45908e-20 -0.000290864 1.96763e-16 -5.58989e-16 8.76592e-33 0.001415 
8779 1 0.0136066 -0.0379801 0.00621986 0 0 0 1.14886e-19 5.24101e-20 -0.208823 -1.01866e-25 -4.64709e-26 -0.000290864 -4.07847e-19 8.9402e-19 -5.008e-34 0.001415 
6552 1 -0.00600865 -0.0297033 0.00683662 0 0 0 7.94188e-19 -1.28719e-19 -0.208823 -7.04189e-25 1.14132e-25 -0.000290864 -4.68512e-19 -2.89069e-18 -2.04111e-34 0.001415 
9890 1 -0.0540531 -0.00515523 0.00547046 0 0 0 -5.31191e-18 6.63449e-18 -0.208823 -1.36651e-19 1.70675e-19 -0.000290864 5.33358e-16 4.27033e-16 -1.88597e-31 0.001415 
4516 1 0.00201022 -0.00437069 0.00625655 0 0 0 -1.07235e-18 1.28017e-18 -0.208823 9.50829e-25 -1.1351e-24 -0.000290864 4.69489e-18 3.93273e-18 -1.24824e-32 0.001415 
5818 1 0.0744051 0.00953964 0.005766 0 0 0 2.36872e-19 -2.27673e-19 -0.208823 -2.10029e-25 2.01873e-25 -0.000290864 -2.53203e-19 -2.63433e-19 -1.71797e-34 0.001415 
6447 1 -0.0515136 0.0117203 0.00607893 0 0 0 -1.10179e-18 1.34224e-18 -0.208823 9.76931e-25 -1.19013e-24 -0.000290864 4.42274e-18 3.63045e-18 -1.38202e-32 0.001415 
4347 1 0.0446345 0.0124385 0.00683571 0 0 0 -7.28313e-19 -2.55988e-19 -0.208823 6.45779e-25 2.26979e-25 -0.000290864 -2.68524e-19 7.63981e-19 -3.25111e-35 0.001415 
9996 1 -0.0293411 0.0177597 0.00679037 0 0 0 -1.75264e-18 -1.67429e-18 -0.208823 1.55402e-24 1.48455e-24 -0.000290864 -7.58378e-18 7.93866e-18 1.07774e-32 0.001415 
4221 1 0.00751144 0.0235905 0.0061488 0 0 0 3.0845e-20 -2.27965e-19 -0.208823 -2.73496e-26 2.02131e-25 -0.000290864 4.14663e-19 5.61065e-20 1.08558e-34 0.001415 
3550 1 0.0375782 0.0284832 0.00690386 0 0 0 -1.07717e-18 6.30155e-18 -0.208823 9.55103e-25 -5.58744e-24 -0.000290864 3.71292e-17 6.34678e-18 -1.16608e-32 0.001415 
2814 1 0.0624335 0.0274639 0.00620672 0 0 0 1.42421e-19 7.22633e-19 -0.208823 -1.26282e-25 -6.40742e-25 -0.000290864 1.17368e-18 -2.31316e-19 1.95783e-33 0.001415 
8777 1 0.0130109 0.0334818 0.00602369 0 0 0 3.55261e-18 -5.97891e-18 -0.208823 8.35931e-20 -1.40684e-19 -0.000290864 -3.64974e-16 -2.16864e-16 2.44941e-31 0.001415 
4641 1 -0.00200478 0.0474767 0.00532827 0 0 0 -2.10651e-18 1.13426e-18 -0.208823 1.86779e-24 -1.00573e-24 -0.000290864 5.34902e-18 9.93399e-18 -2.46553e-33 0.001415 
5122 1 -0.00838197 -0.0644234 0.00837048 0 0 0 7.79472e-19 2.74372e-19 -0.208823 -6.0343e-21 -2.12405e-21 -0.000290864 1.44243e-17 -4.09784e-17 -2.7658e-31 0.001415 
8780 1 0.0123897 -0.0385353 0.00871381 0 0 0 9.23353e-18 4.21228e-18 -0.208823 3.02434e-19 1.37969e-19 -0.000290864 -5.63672e-16 1.2356e-15 5.85757e-31 0.001415 
166 1 0.0235813 -0.0390227 0.00732992 0 0 0 -3.49475e-19 -4.66464e-18 -0.208823 -1.54987e-20 -2.06869e-19 -0.000290864 -5.05447e-17 3.78682e-18 8.60729e-31 0.001415 
1407 1 0.0135434 -0.0200891 0.00752796 0 0 0 -6.80123e-19 -1.98971e-19 -0.208823 6.0305e-25 1.76423e-25 -0.000290864 -4.80095e-19 1.64106e-18 -6.54918e-34 0.001415 
8589 1 -0.0402517 -0.0187189 0.00763492 0 0 0 5.78213e-20 -7.63608e-19 -0.208823 -5.12688e-26 6.77074e-25 -0.000290864 3.63301e-18 2.75096e-19 -1.53639e-32 0.001415 
5438 1 0.0249608 -0.0142584 0.00767525 0 0 0 1.10693e-18 -2.10333e-18 -0.208823 8.35612e-20 -1.58779e-19 -0.000290864 -4.27308e-16 -2.24882e-16 -2.61751e-31 0.001415 
2100 1 -0.012979 -0.0106864 0.00774257 0 0 0 2.1055e-18 3.82021e-19 -0.208823 -1.8669e-24 -3.38729e-25 -0.000290864 2.9161e-18 -1.60721e-17 6.767e-32 0.001415 
9889 1 -0.0544321 -0.00468185 0.00823473 0 0 0 -9.12055e-19 1.13914e-18 -0.208823 8.08698e-25 -1.01005e-24 -0.000290864 -6.00759e-18 -4.80998e-18 -3.20225e-34 0.001415 
4517 1 0.00302288 -0.0055796 0.00860643 0 0 0 1.07235e-18 -1.28017e-18 -0.208823 -9.50829e-25 1.1351e-24 -0.000290864 4.69489e-18 3.93273e-18 -1.24824e-32 0.001415 
7477 1 0.00556963 0.00632744 0.00847533 0 0 0 0 0 -0.208823 0 0 -0.000290864 0 0 0 0.001415 
6446 1 -0.0505093 0.0104969 0.00842489 0 0 0 -2.02611e-19 2.46828e-19 -0.208823 -4.27011e-20 5.20199e-20 -0.000290864 -6.43883e-18 -5.28538e-18 1.16244e-31 0.001415 
5819 1 0.0733204 0.0105822 0.00816294 0 0 0 -2.36872e-19 2.27673e-19 -0.208823 2.10029e-25 -2.01873e-25 -0.000290864 -2.53203e-19 -2.63433e-19 -1.71797e-34 0.001415 
4368 1 0.0417993 0.0124877 0.00870374 0 0 0 0 0 -0.208823 0 0 -0.000290864 0 0 0 0.001415 
1281 1 -0.00910888 0.0220965 0.00720495 0 0 0 -7.2007e-19 -2.66735e-19 -0.208823 6.3847e-25 2.36508e-25 -0.000290864 -8.98051e-19 2.42435e-18 -9.39191e-34 0.001415 
4220 1 0.00732219 0.0249892 0.00860171 0 0 0 4.928e-19 -3.64211e-18 -0.208823 1.72217e-20 -1.27279e-19 -0.000290864 -3.11348e-17 -4.21273e-18 -3.22835e-32 0.001415 
2813 1 0.0621842 0.0261988 0.00872591 0 0 0 3.54994e-19 1.80121e-18 -0.208823 1.64992e-20 8.37158e-20 -0.000290864 -9.91347e-18 1.95381e-18 -4.41259e-32 0.001415 
8776 1 0.0132433 0.0330907 0.00881688 0 0 0 -1.02018e-19 1.71692e-19 -0.208823 -1.00224e-20 1.68673e-20 -0.000290864 -3.25013e-18 -1.9312e-18 4.14892e-32 0.001415 
3969 1 -0.0266131 0.0377733 0.00822219 0 0 0 -5.26903e-18 1.6484e-17 -0.208823 -1.69847e-19 5.31362e-19 -0.000290864 -1.17904e-15 -3.76874e-16 2.90748e-31 0.001415 
7875 1 -0.0151895 0.0366812 0.00862312 0 0 0 1.40741e-18 1.66474e-18 -0.208823 4.54756e-20 5.37905e-20 -0.000290864 5.45228e-17 -4.60947e-17 -1.02974e-32 0.001415 
484 1 0.0153265 0.0412785 0.00729437 0 0 0 2.85391e-18 -2.41897e-18 -0.208823 -2.5305e-24 2.14485e-24 -0.000290864 -1.26421e-17 -1.49152e-17 1.1147e-32 0.001415 
4097 1 0.0483957 0.0416236 0.00730237 0 0 0 -2.79683e-18 9.50985e-19 -0.208823 -1.37417e-19 4.67249e-20 -0.000290864 -3.60197e-17 -1.05933e-16 9.04821e-32 0.001415 
4640 1 -0.000842548 0.0468509 0.00783157 0 0 0 2.10651e-18 -1.13426e-18 -0.208823 -1.86779e-24 1.00573e-24 -0.000290864 5.34902e-18 9.93399e-18 -2.46553e-33 0.001415 
7350 1 0.0388042 0.0484249 0.00753543 0 0 0 -4.44048e-21 -7.50925e-20 -0.208823 3.93727e-27 6.65828e-26 -0.000290864 2.59573e-19 -1.53495e-20 3.67284e-36 0.001415 
6406 1 -0.013834 -0.0547628 0.0100222 0 0 0 5.26564e-18 -1.53514e-18 -0.208823 1.70179e-19 -4.96139e-20 -0.000290864 -3.68904e-17 -1.26537e-16 -6.96971e-31 0.001415 
4747 1 -0.048396 -0.0516837 0.010811 0 0 0 -1.56291e-17 2.28516e-18 -0.208823 -5.06182e-19 7.40097e-20 -0.000290864 -9.70517e-17 -6.63776e-16 5.47134e-32 0.001415 
8904 1 0.00698378 -0.051284 0.0103304 0 0 0 0 0 -0.208823 0 0 -0.000290864 0 0 0 0.001415 
9219 1 -0.0350531 -0.0474779 0.00909409 0 0 0 0 0 -0.208823 0 0 -0.000290864 0 0 0 0.001415 
8295 1 0.0424827 -0.0477148 0.00936181 0 0 0 0 0 -0.208823 0 0 -0.000290864 0 0 0 0.001415 
165 1 0.0235443 -0.0395164 0.0101163 0 0 0 4.08149e-21 5.44778e-20 -0.208823 4.01617e-21 5.36061e-20 -0.000290864 1.79925e-16 -1.348e-17 2.75427e-30 0.001415 
6551 1 -0.00658842 -0.0296093 0.009605 0 0 0 8.01874e-19 -1.29965e-19 -0.208823 5.16424e-20 -8.37002e-21 -0.000290864 -5.13415e-18 -3.16773e-17 3.41392e-33 0.001415 
9787 1 -0.0202299 -0.023698 0.0104202 0 0 0 -2.20672e-18 -2.74398e-18 -0.208823 -7.18031e-20 -8.92849e-20 -0.000290864 -6.0541e-17 4.86872e-17 3.4613e-33 0.001415 
1406 1 0.0148736 -0.0197 0.00999537 0 0 0 6.80123e-19 1.98971e-19 -0.208823 -6.0305e-25 -1.76423e-25 -0.000290864 -4.80095e-19 1.64106e-18 -6.54918e-34 0.001415 
8588 1 -0.0403296 -0.0176897 0.01027 0 0 0 1.33451e-18 -1.7624e-17 -0.208823 5.30466e-20 -7.00551e-19 -0.000290864 3.4439e-16 2.60776e-17 1.53706e-30 0.001415 
8820 1 0.00980992 -0.0172644 0.0105978 0 0 0 0 0 -0.208823 0 0 -0.000290864 0 0 0 0.001415 
3529 1 0.0670132 -0.0166749 0.0108978 0 0 0 0 0 -0.208823 0 0 -0.000290864 0 0 0 0.001415 
4473 1 -0.0215554 -0.0144106 0.0103745 0 0 0 0 0 -0.208823 0 0 -0.000290864 0 0 0 0.001415 
5437 1 0.0244153 -0.0132218 0.0102514 0 0 0 2.45787e-18 -4.67033e-18 -0.208823 5.54689e-20 -1.05399e-19 -0.000290864 1.51191e-16 7.95677e-17 4.08572e-31 0.001415 
2099 1 -0.0146787 -0.0109948 0.00998415 0 0 0 7.36631e-20 1.33654e-20 -0.208823 7.11812e-20 1.29151e-20 -0.000290864 7.50877e-18 -4.13845e-17 1.21296e-31 0.001415 
3528 1 0.0516347 -0.000942708 0.00968642 0 0 0 -5.88884e-18 -2.67824e-18 -0.208823 -1.90126e-19 -8.64692e-20 -0.000290864 -7.38631e-17 1.62408e-16 1.40613e-30 0.001415 
2457 1 0.0227749 0.00368251 0.0100094 0 0 0 0 0 -0.208823 0 0 -0.000290864 0 0 0 0.001415 
6445 1 -0.0495051 0.00927345 0.0107708 0 0 0 -6.03971e-21 7.35778e-21 -0.208823 -1.33907e-21 1.6313e-21 -0.000290864 -2.95704e-17 -2.42732e-17 3.8874e-32 0.001415 
4431 1 -0.0620527 0.012605 0.0107654 0 0 0 -9.65839e-18 2.06325e-18 -0.208823 -4.1147e-19 8.78993e-20 -0.000290864 -1.58029e-16 -7.39758e-16 -8.44262e-31 0.001415 
4346 1 0.0459771 0.0129104 0.00928188 0 0 0 -2.94781e-18 -1.0361e-18 -0.208823 -1.18858e-19 -4.17761e-20 -0.000290864 -3.15239e-17 8.96891e-17 -9.25336e-32 0.001415 
5820 1 0.0722357 0.0116248 0.0105599 0 0 0 2.95991e-18 -2.84497e-18 -0.208823 9.56497e-20 -9.19353e-20 -0.000290864 -8.22631e-17 -8.55867e-17 -2.4305e-31 0.001415 
9995 1 -0.0283179 0.0187371 0.00924122 0 0 0 1.75264e-18 1.67429e-18 -0.208823 -1.55402e-24 -1.48455e-24 -0.000290864 -7.58378e-18 7.93866e-18 1.07774e-32 0.001415 
1280 1 -0.00826091 0.0224106 0.00988659 0 0 0 7.2007e-19 2.66735e-19 -0.208823 -6.3847e-25 -2.36508e-25 -0.000290864 -8.98051e-19 2.42435e-18 -9.39191e-34 0.001415 
3551 1 0.0378271 0.027027 0.00931761 0 0 0 1.07717e-18 -6.30155e-18 -0.208823 -9.55103e-25 5.58744e-24 -0.000290864 3.71292e-17 6.34678e-18 -1.16608e-32 0.001415 
3968 1 -0.0261983 0.0364757 0.0107027 0 0 0 5.26903e-18 -1.6484e-17 -0.208823 1.69847e-19 -5.31362e-19 -0.000290864 -1.17904e-15 -3.76874e-16 2.90748e-31 0.001415 
9745 1 -0.0323504 0.0411674 0.010009 0 0 0 0 0 -0.208823 0 0 -0.000290864 0 0 0 0.001415 
485 1 0.0142511 0.04219 0.00974826 0 0 0 -2.85391e-18 2.41897e-18 -0.208823 2.5305e-24 -2.14485e-24 -0.000290864 -1.26421e-17 -1.49152e-17 1.1147e-32 0.001415 
4098 1 0.0474587 0.0419422 0.00995365 0 0 0 -2.45893e-19 8.3609e-20 -0.208823 3.94253e-20 -1.34055e-20 -0.000290864 -2.23634e-19 -6.57704e-19 -8.51957e-32 0.001415 
4639 1 0.000319678 0.0462251 0.0103349 0 0 0 -5.25468e-18 2.82941e-18 -0.208823 -1.70118e-19 9.16011e-20 -0.000290864 8.4718e-17 1.57335e-16 -4.26279e-31 0.001415 
7349 1 0.0388392 0.0490157 0.0103029 0 0 0 -2.00867e-19 -3.39685e-18 -0.208823 -9.87962e-21 -1.67073e-19 -0.000290864 -4.3315e-16 2.56136e-17 -3.72865e-31 0.001415 
3318 1 0.0108764 -0.0748018 0.012392 0 0 0 0 0 -0.208823 0 0 -0.000290864 0 0 0 0.001415 
5121 1 -0.0078553 -0.064238 0.0111449 0 0 0 -2.41785e-18 -8.51074e-19 -0.208823 -1.22973e-19 -4.32862e-20 -0.000290864 -1.98052e-16 5.62652e-16 8.90303e-30 0.001415 
6407 1 -0.0157638 -0.0542001 0.0120143 0 0 0 -5.26564e-18 1.53514e-18 -0.208823 -1.70179e-19 4.96139e-20 -0.000290864 -3.68904e-17 -1.26537e-16 -6.96971e-31 0.001415 
4748 1 -0.0463698 -0.05198 0.0127644 0 0 0 9.50436e-18 -1.38965e-18 -0.208823 2.18969e-19 -3.20158e-20 -0.000290864 -2.52719e-16 -1.72845e-15 8.24044e-31 0.001415 
8903 1 0.00719176 -0.0530399 0.01254 0 0 0 -5.60065e-19 4.72833e-18 -0.208823 -3.04171e-20 2.56795e-19 -0.000290864 -7.15003e-16 -8.46913e-17 6.23154e-30 0.001415 
8421 1 -0.0125515 -0.050364 0.0122175 0 0 0 0 0 -0.208823 0 0 -0.000290864 0 0 0 0.001415 
5040 1 0.0412118 -0.051077 0.0117946 0 0 0 0 0 -0.208823 0 0 -0.000290864 0 0 0 0.001415 
9218 1 -0.0344149 -0.0491301 0.0113013 0 0 0 -1.66811e-18 4.31786e-18 -0.208823 -8.94582e-20 2.3156e-19 -0.000290864 -4.87083e-16 -1.88174e-16 4.26728e-30 0.001415 
8294 1 0.0417911 -0.0460756 0.0115626 0 0 0 0 0 -0.208823 0 0 -0.000290864 0 0 0 0.001415 
8781 1 0.0111727 -0.0390904 0.0112078 0 0 0 -9.34842e-18 -4.26469e-18 -0.208823 -3.02434e-19 -1.37968e-19 -0.000290864 -5.63264e-16 1.2347e-15 5.86257e-31 0.001415 
7141 1 -0.0440609 -0.0300013 0.0127551 0 0 0 0 0 -0.208823 0 0 -0.000290864 0 0 0 0.001415 
6550 1 -0.00716818 -0.0295154 0.0123734 0 0 0 -1.59606e-18 2.58684e-19 -0.208823 -5.16417e-20 8.3699e-21 -0.000290864 -4.66564e-18 -2.87866e-17 3.61803e-33 0.001415 
9788 1 -0.0191042 -0.0222982 0.012607 0 0 0 5.67467e-19 7.05628e-19 -0.208823 -3.81488e-20 -4.74368e-20 -0.000290864 6.2787e-16 -5.04935e-16 1.77051e-29 0.001415 
1405 1 0.0162037 -0.0193109 0.0124628 0 0 0 -8.62165e-18 -2.52228e-18 -0.208823 -3.87164e-19 -1.13265e-19 -0.000290864 1.74469e-16 -5.96371e-16 3.49934e-30 0.001415 
8819 1 0.00974619 -0.0192248 0.0126379 0 0 0 3.83436e-19 1.17933e-17 -0.208823 1.63244e-20 5.02087e-19 -0.000290864 -1.49232e-16 4.85199e-18 -5.80294e-30 0.001415 
4472 1 -0.0211077 -0.0159411 0.0127124 0 0 0 -4.78365e-18 1.63519e-17 -0.208823 -1.88186e-19 6.43272e-19 -0.000290864 -1.80446e-15 -5.27886e-16 -2.05743e-30 0.001415 
4389 1 -0.00210167 -0.0164576 0.0114045 0 0 0 9.09678e-19 -4.43458e-19 -0.208823 6.08501e-20 -2.96637e-20 -0.000290864 -1.65565e-16 -3.39628e-16 -8.56963e-31 0.001415 
2098 1 -0.0163785 -0.0113032 0.0122257 0 0 0 -2.17916e-18 -3.95386e-19 -0.208823 -7.11793e-20 -1.29147e-20 -0.000290864 4.59267e-18 -2.53125e-17 5.36259e-32 0.001415 
4518 1 0.00403554 -0.00678852 0.0109563 0 0 0 -6.0723e-18 7.2491e-18 -0.208823 -2.57861e-19 3.07834e-19 -0.000290864 -3.84772e-16 -3.22309e-16 -1.63112e-29 0.001415 
9888 1 -0.0548111 -0.00420847 0.010999 0 0 0 1.19519e-18 -1.49277e-18 -0.208823 6.76016e-20 -8.44333e-20 -0.000290864 -3.59524e-16 -2.87853e-16 -3.51192e-30 0.001415 
3527 1 0.053278 -0.000195356 0.0118659 0 0 0 5.88884e-18 2.67824e-18 -0.208823 1.90126e-19 8.64692e-20 -0.000290864 -7.38631e-17 1.62408e-16 1.40613e-30 0.001415 
4852 1 -0.0576017 0.00160357 0.0126268 0 0 0 2.59599e-18 4.25947e-18 -0.208823 1.37357e-19 2.25374e-19 -0.000290864 -8.35016e-17 5.08911e-17 1.87174e-29 0.001415 
2456 1 0.0231999 0.00341526 0.0127945 0 0 0 -1.20098e-16 7.55262e-17 -0.208823 -2.66085e-18 1.67334e-18 -0.000290864 -4.34727e-16 -6.91279e-16 -1.53386e-30 0.001415 
1470 1 -0.0541433 0.00552442 0.0112465 0 0 0 6.90417e-18 6.65323e-18 -0.208823 3.15301e-19 3.03841e-19 -0.000290864 -5.55885e-16 5.76852e-16 1.42245e-29 0.001415 
7478 1 0.0063252 0.00556124 0.0110928 0 0 0 0 0 -0.208823 0 0 -0.000290864 0 0 0 0.001415 
5545 1 -0.0302182 0.00727945 0.0113869 0 0 0 0 0 -0.208823 0 0 -0.000290864 0 0 0 0.001415 
4367 1 0.0426483 0.0117219 0.0112925 0 0 0 -2.60097e-18 2.34627e-18 -0.208823 -1.46604e-19 1.32247e-19 -0.000290864 1.82586e-16 2.02408e-16 4.97429e-31 0.001415 
4345 1 0.0473197 0.0133822 0.0117281 0 0 0 3.67612e-18 1.29208e-18 -0.208823 1.18857e-19 4.17759e-20 -0.000290864 -3.12554e-17 8.89251e-17 -9.25011e-32 0.001415 
9994 1 -0.0272948 0.0197145 0.0116921 0 0 0 -6.43071e-18 -6.14324e-18 -0.208823 -2.82933e-19 -2.70285e-19 -0.000290864 4.47124e-16 -4.68047e-16 6.81268e-30 0.001415 
1279 1 -0.00741294 0.0227247 0.0125682 0 0 0 -7.68039e-18 -2.84505e-18 -0.208823 -3.33826e-19 -1.23659e-19 -0.000290864 -1.30574e-16 3.52494e-16 -1.13575e-30 0.001415 
2812 1 0.0619348 0.0249338 0.0112451 0 0 0 4.64846e-19 2.35859e-18 -0.208823 3.40125e-20 1.72576e-19 -0.000290864 4.8833e-16 -9.62432e-17 -7.77654e-30 0.001415 
4219 1 0.00713294 0.0263879 0.0110546 0 0 0 3.24982e-19 -2.40183e-18 -0.208823 2.39074e-20 -1.76691e-19 -0.000290864 1.73965e-16 2.35386e-17 -6.63708e-32 0.001415 
3552 1 0.038076 0.0255707 0.0117314 0 0 0 -3.16873e-19 1.85374e-18 -0.208823 -2.08467e-20 1.21955e-19 -0.000290864 -3.56503e-16 -6.09397e-17 7.70901e-30 0.001415 
9955 1 0.0480973 0.0295036 0.0120268 0 0 0 0 0 -0.208823 0 0 -0.000290864 0 0 0 0.001415 
6216 1 -0.023401 0.0310553 0.0111241 0 0 0 -8.85403e-19 -4.11674e-18 -0.208823 -2.88886e-20 -1.34319e-19 -0.000290864 -6.66964e-17 1.43447e-17 -3.12394e-31 0.001415 
8775 1 0.0134757 0.0326995 0.0116101 0 0 0 -9.50012e-20 1.59883e-19 -0.208823 -1.65726e-20 2.78911e-20 -0.000290864 2.57408e-16 1.5295e-16 -1.27557e-30 0.001415 
7874 1 -0.0157052 0.0360712 0.011338 0 0 0 -1.40741e-18 -1.66474e-18 -0.208823 -4.54756e-20 -5.37905e-20 -0.000290864 5.45228e-17 -4.60947e-17 -1.02974e-32 0.001415 
4099 1 0.0465216 0.0422608 0.0126049 0 0 0 -1.21371e-18 4.12688e-19 -0.208823 -3.9424e-20 1.3405e-20 -0.000290864 1.29714e-18 3.81488e-18 -8.37337e-32 0.001415 
9746 1 -0.0326219 0.0429159 0.0122177 0 0 0 9.50461e-19 -6.12131e-18 -0.208823 4.82036e-20 -3.10448e-19 -0.000290864 7.81437e-16 1.21334e-16 -4.99726e-30 0.001415 
486 1 0.0131757 0.0431015 0.0122022 0 0 0 1.03374e-17 -8.76199e-18 -0.208823 4.20159e-19 -3.56126e-19 -0.000290864 1.1734e-15 1.38438e-15 8.91123e-30 0.001415 
8316 1 0.0241447 0.055508 0.0127697 0 0 0 0 0 -0.208823 0 0 -0.000290864 0 0 0 0.001415 
6048 1 -0.0014895 0.0671831 0.0116173 0 0 0 -5.52504e-18 -3.32012e-19 -0.208823 -2.8845e-19 -1.73336e-20 -0.000290864 1.31234e-17 -2.18387e-16 -2.14256e-31 0.001415 
3317 1 0.00879117 -0.0741345 0.0141851 0 0 0 3.29645e-16 -1.05491e-16 -0.208823 7.35997e-18 -2.35529e-18 -0.000290864 2.92608e-16 9.1436e-16 1.23947e-29 0.001415 
4537 1 0.0348065 -0.0668743 0.014163 0 0 0 1.07971e-16 -2.10266e-16 -0.208823 2.27102e-18 -4.42267e-18 -0.000290864 3.00133e-15 1.54117e-15 -2.06609e-29 0.001415 
5120 1 -0.00732864 -0.0640527 0.0139192 0 0 0 -1.32323e-16 -4.65774e-17 -0.208823 -2.62326e-18 -9.2338e-19 -0.000290864 5.59285e-16 -1.58889e-15 8.73664e-30 0.001415 
4749 1 -0.0443437 -0.0522762 0.0147178 0 0 0 -2.44038e-16 3.56811e-17 -0.208823 -4.17811e-18 6.10887e-19 -0.000290864 1.82002e-16 1.24479e-15 5.26622e-30 0.001415 
6408 1 -0.0176936 -0.0536375 0.0140063 0 0 0 3.53868e-16 -1.03166e-16 -0.208823 7.81333e-18 -2.27789e-18 -0.000290864 3.37838e-16 1.15881e-15 4.76822e-29 0.001415 
9217 1 -0.0337766 -0.0507822 0.0135086 0 0 0 -1.12437e-16 2.91041e-16 -0.208823 -2.19786e-18 5.68911e-18 -0.000290864 -6.94012e-16 -2.68117e-16 3.5663e-29 0.001415 
5039 1 0.0393096 -0.0515993 0.0138238 0 0 0 3.22936e-16 8.86717e-17 -0.208823 6.68665e-18 1.83602e-18 -0.000290864 -2.07561e-16 7.55921e-16 6.2911e-30 0.001415 
8420 1 -0.0130316 -0.0490822 0.0146944 0 0 0 1.07229e-16 -2.86323e-16 -0.208823 2.23629e-18 -5.97134e-18 -0.000290864 1.25037e-15 4.68268e-16 -2.46889e-30 0.001415 
8293 1 0.0410995 -0.0444363 0.0137634 0 0 0 1.40872e-16 -3.33893e-16 -0.208823 3.04597e-18 -7.21952e-18 -0.000290864 -1.90466e-15 -8.0359e-16 3.9978e-29 0.001415 
8782 1 0.00995582 -0.0396456 0.0137017 0 0 0 2.41598e-16 1.10216e-16 -0.208823 4.64562e-18 2.1193e-18 -0.000290864 4.03296e-16 -8.84046e-16 3.66648e-30 0.001415 
164 1 0.0235073 -0.0400101 0.0129026 0 0 0 8.87267e-18 1.18428e-16 -0.208823 1.70872e-19 2.28072e-18 -0.000290864 -1.53558e-15 1.15046e-16 3.52955e-30 0.001415 
1765 1 -0.00582286 -0.0341936 0.0144565 0 0 0 2.75375e-16 -8.61753e-17 -0.208823 5.72029e-18 -1.79009e-18 -0.000290864 -4.95653e-16 -1.58387e-15 -2.96922e-29 0.001415 
2898 1 -0.0015393 -0.0260351 0.0147287 0 0 0 2.00875e-16 -3.96547e-17 -0.208823 4.28467e-18 -8.45834e-19 -0.000290864 4.143e-16 2.09868e-15 8.70278e-32 0.001415 
1113 1 0.057839 -0.0250229 0.0135853 0 0 0 3.01479e-16 1.54672e-16 -0.208823 6.26233e-18 3.21286e-18 -0.000290864 2.44452e-16 -4.76472e-16 -7.4824e-29 0.001415 
2604 1 -0.0264828 -0.0239558 0.0144533 0 0 0 2.83262e-16 -1.23331e-17 -0.208823 6.08434e-18 -2.64909e-19 -0.000290864 -7.70537e-17 -1.76974e-15 4.86299e-30 0.001415 
8818 1 0.00968245 -0.0211851 0.0146779 0 0 0 9.98265e-18 3.07035e-16 -0.208823 1.96907e-19 6.05624e-18 -0.000290864 -8.87251e-16 2.88473e-17 -6.48065e-30 0.001415 
3530 1 0.0663652 -0.0174708 0.0135351 0 0 0 1.90674e-16 2.34185e-16 -0.208823 4.26133e-18 5.23376e-18 -0.000290864 -1.98918e-15 1.61959e-15 -1.99363e-29 0.001415 
8587 1 -0.0404076 -0.0166605 0.0129051 0 0 0 1.57806e-17 -2.08405e-16 -0.208823 6.20593e-19 -8.19576e-18 -0.000290864 2.34825e-15 1.77812e-16 2.75844e-30 0.001415 
4388 1 -0.00265555 -0.0161876 0.0141666 0 0 0 1.35119e-16 -6.5869e-17 -0.208823 2.67195e-18 -1.30254e-18 -0.000290864 7.11194e-16 1.4589e-15 -2.8107e-30 0.001415 
2097 1 -0.0180782 -0.0116116 0.0144673 0 0 0 3.28452e-16 5.95941e-17 -0.208823 6.83801e-18 1.24068e-18 -0.000290864 2.79565e-16 -1.54082e-15 -2.86904e-29 0.001415 
5436 1 0.0238697 -0.0121851 0.0128276 0 0 0 -1.62483e-18 3.08743e-18 -0.208823 -9.23744e-21 1.75525e-20 -0.000290864 2.56351e-16 1.34911e-16 -7.3908e-30 0.001415 
4519 1 0.0050482 -0.00799743 0.0133062 0 0 0 -1.56457e-16 1.86778e-16 -0.208823 -2.67196e-18 3.18978e-18 -0.000290864 -7.11543e-16 -5.96033e-16 -1.15322e-29 0.001415 
9887 1 -0.0551901 -0.00373509 0.0137633 0 0 0 9.48418e-17 -1.18456e-16 -0.208823 1.87351e-18 -2.33998e-18 -0.000290864 1.39092e-15 1.11364e-15 -6.66659e-30 0.001415 
4853 1 -0.0586257 -7.65915e-05 0.0146609 0 0 0 1.70267e-16 2.79372e-16 -0.208823 3.45392e-18 5.66716e-18 -0.000290864 -1.98651e-15 1.2107e-15 3.65073e-30 0.001415 
9744 1 -0.0476714 0.00124731 0.0135475 0 0 0 1.19448e-18 1.36061e-18 -0.208823 7.26441e-20 8.27477e-20 -0.000290864 -3.66203e-17 3.21489e-17 1.54727e-29 0.001415 
3403 1 0.0399954 0.00144601 0.0136824 0 0 0 -2.80401e-16 1.32692e-17 -0.208823 -5.20725e-18 2.46418e-19 -0.000290864 -5.41084e-17 -1.14341e-15 5.17765e-30 0.001415 
3526 1 0.0549212 0.000551996 0.0140454 0 0 0 -3.31532e-16 -1.5078e-16 -0.208823 -7.0691e-18 -3.21502e-18 -0.000290864 -7.96335e-16 1.75096e-15 -1.22494e-28 0.001415 
3843 1 -0.0432547 0.00201405 0.0142679 0 0 0 2.6513e-16 1.80649e-16 -0.208823 5.43641e-18 3.70417e-18 -0.000290864 -2.33181e-17 3.42227e-17 2.01123e-29 0.001415 
6238 1 0.0476834 0.00358837 0.0138034 0 0 0 3.3796e-16 -2.17449e-16 -0.208823 7.60213e-18 -4.89133e-18 -0.000290864 1.4139e-16 2.19749e-16 -1.32838e-29 0.001415 
1469 1 -0.0554428 0.00427207 0.0134263 0 0 0 2.43006e-16 2.34173e-16 -0.208823 5.44674e-18 5.24877e-18 -0.000290864 1.24993e-16 -1.29708e-16 -1.88823e-29 0.001415 
7479 1 0.00708078 0.00479504 0.0137102 0 0 0 -1.77655e-16 1.80153e-16 -0.208823 -3.65673e-18 3.70815e-18 -0.000290864 -1.49618e-15 -1.47543e-15 -3.89147e-29 0.001415 
6444 1 -0.0485008 0.00805 0.0131168 0 0 0 -2.84097e-18 3.46097e-18 -0.208823 -1.72081e-19 2.09635e-19 -0.000290864 -6.47317e-16 -5.31357e-16 -1.68971e-29 0.001415 
5546 1 -0.0286421 0.00814112 0.0135737 0 0 0 -3.36282e-16 -1.8385e-16 -0.208823 -7.37704e-18 -4.03314e-18 -0.000290864 -1.38388e-15 2.53127e-15 -1.16862e-28 0.001415 
7897 1 0.0202104 0.0106666 0.0129696 0 0 0 1.74605e-18 8.32273e-18 -0.208823 7.98889e-20 3.80799e-19 -0.000290864 1.63053e-16 -3.42074e-17 5.86093e-30 0.001415 
4366 1 0.0434972 0.010956 0.0138813 0 0 0 -2.01252e-16 1.81544e-16 -0.208823 -4.0448e-18 3.6487e-18 -0.000290864 -1.11046e-15 -1.23101e-15 1.41354e-30 0.001415 
4430 1 -0.0607358 0.0123237 0.0132545 0 0 0 -2.41727e-16 5.16384e-17 -0.208823 -4.27744e-18 9.13757e-19 -0.000290864 -1.6533e-16 -7.73935e-16 1.00552e-29 0.001415 
5821 1 0.071151 0.0126674 0.0129568 0 0 0 -2.95991e-18 2.84497e-18 -0.208823 -9.56497e-20 9.19353e-20 -0.000290864 -8.22631e-17 -8.55867e-17 -2.4305e-31 0.001415 
4344 1 0.0486622 0.0138541 0.0141742 0 0 0 -3.00016e-16 -1.0545e-16 -0.208823 -6.25283e-18 -2.19774e-18 -0.000290864 2.3097e-16 -6.57134e-16 5.04703e-29 0.001415 
5629 1 -0.00809486 0.0186934 0.0140475 0 0 0 2.9331e-16 5.13105e-18 -0.208823 6.03606e-18 1.05592e-19 -0.000290864 4.64942e-17 -2.65778e-15 5.93751e-31 0.001415 
9993 1 -0.0262716 0.020692 0.0141429 0 0 0 -1.88116e-16 -1.79707e-16 -0.208823 -3.45069e-18 -3.29643e-18 -0.000290864 -5.81865e-16 6.09094e-16 2.6446e-29 0.001415 
3553 1 0.038325 0.0241144 0.0141451 0 0 0 -4.41953e-17 2.58547e-16 -0.208823 -7.99182e-19 4.67529e-18 -0.000290864 2.68461e-16 4.589e-17 9.2724e-30 0.001415 
2811 1 0.0616855 0.0236687 0.0137643 0 0 0 5.78465e-17 2.93508e-16 -0.208823 1.18371e-18 6.00604e-18 -0.000290864 -2.47995e-15 4.88765e-16 -1.88271e-29 0.001415 
4218 1 0.00694369 0.0277865 0.0135075 0 0 0 3.7485e-17 -2.77039e-16 -0.208823 7.19859e-19 -5.32022e-18 -0.000290864 -3.00859e-16 -4.07081e-17 -5.99837e-33 0.001415 
9956 1 0.047731 0.0274693 0.0139597 0 0 0 5.80407e-17 3.22346e-16 -0.208823 1.22423e-18 6.79912e-18 -0.000290864 -1.14078e-15 2.05405e-16 -8.87884e-31 0.001415 
6007 1 0.0347873 0.0296881 0.0137296 0 0 0 8.87498e-17 9.9442e-17 -0.208823 1.69659e-18 1.90099e-18 -0.000290864 -1.29086e-15 1.15206e-15 1.00904e-29 0.001415 
8774 1 0.0137081 0.0323084 0.0144032 0 0 0 -5.91113e-17 9.94821e-17 -0.208823 -1.16253e-18 1.9565e-18 -0.000290864 -1.30183e-15 -7.73534e-16 2.09731e-30 0.001415 
6215 1 -0.0229502 0.0331509 0.0129718 0 0 0 1.27435e-19 5.92517e-19 -0.208823 -1.41429e-20 -6.57582e-20 -0.000290864 4.95514e-16 -1.06572e-16 -3.35936e-30 0.001415 
3967 1 -0.0257836 0.0351781 0.0131833 0 0 0 -9.86826e-17 3.08725e-16 -0.208823 -2.09187e-18 6.54433e-18 -0.000290864 -1.40213e-15 -4.48186e-16 1.86509e-29 0.001415 
7873 1 -0.0162209 0.0354611 0.0140529 0 0 0 1.29072e-16 1.52672e-16 -0.208823 2.64773e-18 3.13185e-18 -0.000290864 -2.60224e-15 2.19999e-15 3.26436e-30 0.001415 
6847 1 -0.0500743 0.0395872 0.0142096 0 0 0 -3.19359e-16 1.37747e-16 -0.208823 -7.20707e-18 3.10857e-18 -0.000290864 8.63145e-16 2.00116e-15 -4.03853e-29 0.001415 
487 1 0.0121003 0.044013 0.014656 0 0 0 1.93464e-16 -1.6398e-16 -0.208823 3.5107e-18 -2.97567e-18 -0.000290864 3.41057e-16 4.0238e-16 1.89203e-29 0.001415 
9747 1 -0.0328934 0.0446643 0.0144263 0 0 0 5.10276e-17 -3.28636e-16 -0.208823 1.01949e-18 -6.56589e-18 -0.000290864 -2.8571e-16 -4.43624e-17 -2.73368e-30 0.001415 
4638 1 0.00148191 0.0455993 0.0128382 0 0 0 3.63304e-18 -1.95623e-18 -0.208823 6.25467e-20 -3.36786e-20 -0.000290864 -6.80071e-18 -1.263e-17 9.6589e-31 0.001415 
7348 1 0.0388741 0.0496065 0.0130703 0 0 0 -8.88777e-18 -1.503e-16 -0.208823 -1.76109e-19 -2.97816e-18 -0.000290864 1.91658e-15 -1.13334e-16 -7.97876e-31 0.001415 
8315 1 0.0261215 0.0546907 0.0146226 0 0 0 -3.20459e-16 1.32487e-16 -0.208823 -6.95747e-18 2.87641e-18 -0.000290864 -5.46451e-16 -1.32176e-15 9.6313e-29 0.001415 
4831 1 0.0293284 0.0560787 0.0132391 0 0 0 2.7902e-16 -1.55105e-16 -0.208823 5.71757e-18 -3.17835e-18 -0.000290864 -5.25812e-16 -9.45889e-16 -2.40561e-29 0.001415 
6909 1 0.00964204 0.0590336 0.0132732 0 0 0 3.07831e-17 -1.85477e-17 -0.208823 1.12108e-18 -6.75479e-19 -0.000290864 1.30853e-15 2.17174e-15 -7.84087e-30 0.001415 
6047 1 -2.16486e-05 0.0672713 0.0140353 0 0 0 -3.24362e-16 -1.94916e-17 -0.208823 -6.70476e-18 -4.02904e-19 -0.000290864 6.72449e-17 -1.11903e-15 7.84626e-32 0.001415 
7455 1 0.00864732 0.0657086 0.0141816 0 0 0 -1.34858e-17 3.19802e-16 -0.208823 -2.75827e-19 6.54095e-18 -0.000290864 -7.90012e-16 -3.33142e-17 -4.90771e-30 0.001415 
8757 1 0.00829498 0.0765507 0.0136281 0 0 0 0 0 -0.208823 0 0 -0.000290864 0 0 0 0.001415 
3316 1 0.00670592 -0.0734672 0.0159782 0 0 0 -3.29645e-16 1.05491e-16 -0.208823 -7.35997e-18 2.35529e-18 -0.000290864 2.92608e-16 9.1436e-16 1.23947e-29 0.001415 
2499 1 0.0564696 -0.0568217 0.0161252 0 0 0 2.86743e-18 -6.56046e-18 -0.208823 9.35667e-20 -2.14073e-19 -0.000290864 -8.23668e-17 -3.60007e-17 -1.58542e-31 0.001415 
8902 1 0.00739974 -0.0547957 0.0147497 0 0 0 -3.88146e-17 3.27691e-16 -0.208823 -7.90972e-19 6.67775e-18 -0.000290864 -2.09455e-16 -2.48097e-17 1.44979e-29 0.001415 
4054 1 -0.0359786 -0.0521436 0.0164117 0 0 0 0 0 -0.208823 0 0 -0.000290864 0 0 0 0.001415 
9216 1 -0.0331383 -0.0524344 0.0157158 0 0 0 1.10749e-16 -2.8667e-16 -0.208823 2.13528e-18 -5.52712e-18 -0.000290864 4.72137e-16 1.824e-16 1.98572e-29 0.001415 
6409 1 -0.0196234 -0.0530749 0.0159984 0 0 0 -3.53868e-16 1.03166e-16 -0.208823 -7.81333e-18 2.27789e-18 -0.000290864 3.37838e-16 1.15881e-15 4.76822e-29 0.001415 
5038 1 0.0374074 -0.0521216 0.015853 0 0 0 -3.00295e-16 -8.2455e-17 -0.208823 -5.81578e-18 -1.5969e-18 -0.000290864 -1.17945e-16 4.29547e-16 2.34992e-29 0.001415 
8292 1 0.0404079 -0.0427971 0.0159642 0 0 0 -1.37753e-16 3.26501e-16 -0.208823 -2.89412e-18 6.8596e-18 -0.000290864 -2.10641e-15 -8.88709e-16 4.34053e-29 0.001415 
163 1 0.0234703 -0.0405039 0.015689 0 0 0 -8.87247e-18 -1.18426e-16 -0.208823 -1.70798e-19 -2.27974e-18 -0.000290864 -1.3745e-15 1.02978e-16 3.79958e-30 0.001415 
8783 1 0.00873888 -0.0402008 0.0161957 0 0 0 -2.38207e-16 -1.08668e-16 -0.208823 -4.45923e-18 -2.03427e-18 -0.000290864 3.37507e-16 -7.39832e-16 5.36837e-30 0.001415 
1766 1 -0.00794199 -0.0335305 0.0162111 0 0 0 -2.56282e-16 8.02004e-17 -0.208823 -4.98862e-18 1.56113e-18 -0.000290864 -4.77512e-16 -1.5259e-15 -1.53253e-29 0.001415 
7142 1 -0.0430179 -0.0310366 0.0151736 0 0 0 -2.13936e-16 2.12353e-16 -0.208823 -4.27272e-18 4.2411e-18 -0.000290864 7.36787e-16 7.42281e-16 -4.96537e-29 0.001415 
6549 1 -0.00774795 -0.0294214 0.0151418 0 0 0 1.54804e-16 -2.50901e-17 -0.208823 3.20204e-18 -5.18975e-19 -0.000290864 3.29022e-16 2.03004e-15 4.86776e-31 0.001415 
1112 1 0.0563793 -0.0257718 0.0158913 0 0 0 -3.01479e-16 -1.54672e-16 -0.208823 -6.26233e-18 -3.21286e-18 -0.000290864 2.44452e-16 -4.76472e-16 -7.4824e-29 0.001415 