ITEM: TIMESTEP
40000
ITEM: NUMBER OF ATOMS
10248
ITEM: BOX BOUNDS ff ff ff
-0.2 0.2
-0.2 0.2
-0.01 0.5
ITEM: ATOMS id type x y z ix iy iz vx vy vz fx fy fz omegax omegay omegaz radius 
5124 1 -0.00943529 -0.0647942 0.00284256 0 0 0 -8.57306e-18 -3.01769e-18 -0.207843 -1.66601e-19 -5.86431e-20 -0.000290866 1.53675e-16 -4.3658e-16 -3.4211e-33 0.001415 
168 1 0.0236553 -0.0380352 0.00177805 0 0 0 3.39365e-18 4.52969e-17 -0.207843 2.67982e-19 3.57691e-18 -0.000290866 -2.39341e-16 1.79314e-17 -2.43347e-31 0.001415 
9891 1 -0.0536741 -0.00562861 0.00272703 0 0 0 5.67761e-18 -7.09125e-18 -0.207843 1.0523e-19 -1.3143e-19 -0.000290866 4.19512e-16 3.35882e-16 -1.25479e-31 0.001415 
8778 1 0.0127785 0.033873 0.00325134 0 0 0 -3.43e-18 5.77256e-18 -0.207843 -6.43526e-20 1.08303e-19 -0.000290866 -2.88887e-16 -1.71654e-16 1.52827e-31 0.001415 
167 1 0.0236183 -0.0385289 0.00456441 0 0 0 -3.0389e-18 -4.05619e-17 -0.207843 -2.53214e-19 -3.37978e-18 -0.000290866 -2.76952e-16 2.07493e-17 3.2979e-31 0.001415 
5439 1 0.0255064 -0.015295 0.00511991 0 0 0 6.69777e-19 -1.27268e-18 -0.207843 -5.92606e-25 1.12604e-24 -0.000290866 -5.2395e-18 -2.75741e-18 2.22116e-33 0.001415 
4096 1 0.0493328 0.0413049 0.00467192 0 0 0 3.79213e-18 -1.28941e-18 -0.207843 1.38092e-19 -4.69544e-20 -0.000290866 -2.5805e-17 -7.58923e-17 4.99506e-32 0.001415 
5123 1 -0.00890863 -0.0646088 0.00561693 0 0 0 7.63664e-18 2.68808e-18 -0.207843 1.66602e-19 5.86434e-20 -0.000290866 1.52225e-16 -4.32462e-16 -6.16594e-34 0.001415 
8779 1 0.0136066 -0.0379801 0.0062407 0 0 0 1.14886e-19 5.24103e-20 -0.207843 -1.01649e-25 -4.63716e-26 -0.000290866 -4.07849e-19 8.94025e-19 -5.00802e-34 0.001415 
6552 1 -0.00600865 -0.0297033 0.00685746 0 0 0 7.9419e-19 -1.2872e-19 -0.207843 -7.02685e-25 1.13889e-25 -0.000290866 -4.68515e-19 -2.8907e-18 -2.04112e-34 0.001415 
9890 1 -0.0540531 -0.00515523 0.00549129 0 0 0 -4.76556e-18 5.9521e-18 -0.207843 -1.05231e-19 1.31431e-19 -0.000290866 4.13504e-16 3.31072e-16 -1.25799e-31 0.001415 
4516 1 0.00201022 -0.00437069 0.00627738 0 0 0 -1.07235e-18 1.28017e-18 -0.207843 9.48798e-25 -1.13267e-24 -0.000290866 4.69491e-18 3.93275e-18 -1.24825e-32 0.001415 
5818 1 0.0744051 0.00953964 0.00578683 0 0 0 2.36872e-19 -2.27674e-19 -0.207843 -2.0958e-25 2.01442e-25 -0.000290866 -2.53204e-19 -2.63434e-19 -1.71797e-34 0.001415 
6447 1 -0.0515136 0.0117203 0.00609977 0 0 0 -1.10179e-18 1.34224e-18 -0.207843 9.74845e-25 -1.18759e-24 -0.000290866 4.42276e-18 3.63047e-18 -1.38203e-32 0.001415 
4347 1 0.0446345 0.0124385 0.00685654 0 0 0 -7.28315e-19 -2.55988e-19 -0.207843 6.444e-25 2.26494e-25 -0.000290866 -2.68526e-19 7.63985e-19 -3.25113e-35 0.001415 
9996 1 -0.0293411 0.0177597 0.0068112 0 0 0 -1.75264e-18 -1.67429e-18 -0.207843 1.55071e-24 1.48138e-24 -0.000290866 -7.58382e-18 7.93871e-18 1.07774e-32 0.001415 
4221 1 0.00751144 0.0235905 0.00616963 0 0 0 3.08451e-20 -2.27965e-19 -0.207843 -2.72912e-26 2.01699e-25 -0.000290866 4.14665e-19 5.61068e-20 1.08558e-34 0.001415 
3550 1 0.0375782 0.0284832 0.00692469 0 0 0 -1.07717e-18 6.30157e-18 -0.207843 9.53064e-25 -5.57551e-24 -0.000290866 3.71294e-17 6.34681e-18 -1.16609e-32 0.001415 
2814 1 0.0624335 0.0274639 0.00622755 0 0 0 1.42422e-19 7.22635e-19 -0.207843 -1.26012e-25 -6.39374e-25 -0.000290866 1.17369e-18 -2.31317e-19 1.95784e-33 0.001415 
8777 1 0.0130109 0.0334818 0.00604452 0 0 0 3.23021e-18 -5.43632e-18 -0.207843 6.43528e-20 -1.08303e-19 -0.000290866 -2.88114e-16 -1.71194e-16 1.52706e-31 0.001415 
4641 1 -0.00200478 0.0474767 0.0053491 0 0 0 -2.10652e-18 1.13427e-18 -0.207843 1.86381e-24 -1.00358e-24 -0.000290866 5.34905e-18 9.93404e-18 -2.46554e-33 0.001415 
5122 1 -0.00838197 -0.0644234 0.00839131 0 0 0 7.99432e-19 2.81398e-19 -0.207843 -5.8076e-21 -2.04426e-21 -0.000290866 1.11076e-17 -3.15561e-17 -2.09528e-31 0.001415 
8780 1 0.0123897 -0.0385353 0.00873464 0 0 0 8.21263e-18 3.74655e-18 -0.207843 3.03336e-19 1.3838e-19 -0.000290866 -4.45211e-16 9.75924e-16 2.87578e-31 0.001415 
166 1 0.0235813 -0.0390227 0.00735076 0 0 0 -2.98527e-19 -3.9846e-18 -0.207843 -1.47687e-20 -1.97125e-19 -0.000290866 -3.63473e-17 2.72314e-18 5.73042e-31 0.001415 
1407 1 0.0135434 -0.0200891 0.00754879 0 0 0 -6.80125e-19 -1.98972e-19 -0.207843 6.01762e-25 1.76047e-25 -0.000290866 -4.80098e-19 1.64107e-18 -6.54921e-34 0.001415 
8589 1 -0.0402517 -0.0187189 0.00765575 0 0 0 5.78215e-20 -7.6361e-19 -0.207843 -5.11594e-26 6.75628e-25 -0.000290866 3.63303e-18 2.75097e-19 -1.5364e-32 0.001415 
5438 1 0.0249608 -0.0142584 0.00769608 0 0 0 8.94379e-19 -1.69945e-18 -0.207843 -7.9133e-25 1.50364e-24 -0.000290866 -3.55782e-16 -1.87239e-16 -2.04878e-31 0.001415 
2100 1 -0.012979 -0.0106864 0.0077634 0 0 0 1.97341e-18 3.58053e-19 -0.207843 -1.74603e-24 -3.16799e-25 -0.000290866 2.71265e-18 -1.49507e-17 5.81114e-32 0.001415 
9889 1 -0.0544321 -0.00468185 0.00825556 0 0 0 -9.12057e-19 1.13914e-18 -0.207843 8.06971e-25 -1.00789e-24 -0.000290866 -6.00762e-18 -4.81001e-18 -3.20227e-34 0.001415 
4517 1 0.00302288 -0.0055796 0.00862727 0 0 0 1.07235e-18 -1.28017e-18 -0.207843 -9.48798e-25 1.13267e-24 -0.000290866 4.69491e-18 3.93275e-18 -1.24825e-32 0.001415 
7477 1 0.00556963 0.00632744 0.00849617 0 0 0 0 0 -0.207843 0 0 -0.000290866 0 0 0 0.001415 
6446 1 -0.0505093 0.0104969 0.00844572 0 0 0 -5.85491e-20 7.13265e-20 -0.207843 -4.27814e-20 5.21178e-20 -0.000290866 -6.76749e-18 -5.55516e-18 9.88829e-32 0.001415 
5819 1 0.0733204 0.0105822 0.00818377 0 0 0 -2.36872e-19 2.27674e-19 -0.207843 2.0958e-25 -2.01442e-25 -0.000290866 -2.53204e-19 -2.63434e-19 -1.71797e-34 0.001415 
4368 1 0.0417993 0.0124877 0.00872457 0 0 0 0 0 -0.207843 0 0 -0.000290866 0 0 0 0.001415 
1281 1 -0.00910888 0.0220965 0.00722578 0 0 0 -7.20072e-19 -2.66736e-19 -0.207843 6.37106e-25 2.36003e-25 -0.000290866 -8.98055e-19 2.42436e-18 -9.39196e-34 0.001415 
4220 1 0.00732219 0.0249892 0.00862254 0 0 0 4.34747e-19 -3.21306e-18 -0.207843 1.72248e-20 -1.27302e-19 -0.000290866 -2.5945e-17 -3.51052e-18 -1.3577e-32 0.001415 
2813 1 0.0621842 0.0261988 0.00874674 0 0 0 2.99441e-19 1.51934e-18 -0.207843 1.64634e-20 8.35341e-20 -0.000290866 -6.12946e-18 1.20803e-18 -4.26512e-32 0.001415 
8776 1 0.0132433 0.0330907 0.00883771 0 0 0 -6.82844e-20 1.1492e-19 -0.207843 -9.99346e-21 1.68186e-20 -0.000290866 -2.20149e-18 -1.3081e-18 2.93861e-32 0.001415 
3969 1 -0.0266131 0.0377733 0.00824302 0 0 0 -4.69533e-18 1.46892e-17 -0.207843 -1.70568e-19 5.33618e-19 -0.000290866 -9.30617e-16 -2.97467e-16 9.00188e-32 0.001415 
7875 1 -0.0151895 0.0366812 0.00864395 0 0 0 1.25378e-18 1.48302e-18 -0.207843 4.56838e-20 5.40368e-20 -0.000290866 4.29434e-17 -3.63052e-17 -7.77435e-33 0.001415 
484 1 0.0153265 0.0412785 0.0073152 0 0 0 2.85392e-18 -2.41898e-18 -0.207843 -2.52509e-24 2.14027e-24 -0.000290866 -1.26422e-17 -1.49153e-17 1.1147e-32 0.001415 
4097 1 0.0483957 0.0416236 0.0073232 0 0 0 -2.33252e-18 7.93107e-19 -0.207843 -1.38094e-19 4.69549e-20 -0.000290866 -2.73258e-17 -8.03649e-17 4.84886e-32 0.001415 
4640 1 -0.000842548 0.0468509 0.0078524 0 0 0 2.10652e-18 -1.13427e-18 -0.207843 -1.86381e-24 1.00358e-24 -0.000290866 5.34905e-18 9.93404e-18 -2.46554e-33 0.001415 
7350 1 0.0388042 0.0484249 0.00755627 0 0 0 -4.44049e-21 -7.50927e-20 -0.207843 3.92886e-27 6.64406e-26 -0.000290866 2.59575e-19 -1.53495e-20 3.67286e-36 0.001415 
6406 1 -0.013834 -0.0547628 0.010043 0 0 0 4.69076e-18 -1.36754e-18 -0.207843 1.7094e-19 -4.98356e-20 -0.000290866 -2.90557e-17 -9.96632e-17 -5.16483e-31 0.001415 
4747 1 -0.048396 -0.0516837 0.0108318 0 0 0 -1.39198e-17 2.03524e-18 -0.207843 -5.08077e-19 7.42867e-20 -0.000290866 -8.17745e-17 -5.59289e-16 1.48519e-31 0.001415 
8904 1 0.00698378 -0.051284 0.0103512 0 0 0 0 0 -0.207843 0 0 -0.000290866 0 0 0 0.001415 
9219 1 -0.0350531 -0.0474779 0.00911493 0 0 0 0 0 -0.207843 0 0 -0.000290866 0 0 0 0.001415 
8295 1 0.0424827 -0.0477148 0.00938264 0 0 0 0 0 -0.207843 0 0 -0.000290866 0 0 0 0.001415 
165 1 0.0235443 -0.0395164 0.0101371 0 0 0 -8.99746e-21 -1.20094e-19 -0.207843 3.74674e-21 5.00098e-20 -0.000290866 1.62561e-16 -1.21791e-17 2.11079e-30 0.001415 
6551 1 -0.00658842 -0.0296093 0.00962584 0 0 0 6.27421e-19 -1.0169e-19 -0.207843 5.18733e-20 -8.40745e-21 -0.000290866 -3.80667e-18 -2.34869e-17 4.62753e-33 0.001415 
9787 1 -0.0202299 -0.023698 0.010441 0 0 0 -1.96437e-18 -2.44264e-18 -0.207843 -7.19964e-20 -8.95253e-20 -0.000290866 -4.81057e-17 3.86867e-17 6.21222e-32 0.001415 
1406 1 0.0148736 -0.0197 0.0100162 0 0 0 6.80125e-19 1.98972e-19 -0.207843 -6.01762e-25 -1.76047e-25 -0.000290866 -4.80098e-19 1.64107e-18 -6.54921e-34 0.001415 
8588 1 -0.0403296 -0.0176897 0.0102908 0 0 0 1.15842e-18 -1.52985e-17 -0.207843 5.14378e-20 -6.79305e-19 -0.000290866 1.36364e-16 1.03257e-17 1.00915e-30 0.001415 
8820 1 0.00980992 -0.0172644 0.0106186 0 0 0 0 0 -0.207843 0 0 -0.000290866 0 0 0 0.001415 
3529 1 0.0670132 -0.0166749 0.0109186 0 0 0 0 0 -0.207843 0 0 -0.000290866 0 0 0 0.001415 
4473 1 -0.0215554 -0.0144106 0.0103953 0 0 0 0 0 -0.207843 0 0 -0.000290866 0 0 0 0.001415 
5437 1 0.0244153 -0.0132218 0.0102723 0 0 0 2.2018e-18 -4.18374e-18 -0.207843 1.39078e-19 -2.6427e-19 -0.000290866 1.08232e-16 5.696e-17 2.87943e-31 0.001415 
2099 1 -0.0146787 -0.0109948 0.010005 0 0 0 -3.45166e-20 -6.26266e-21 -0.207843 7.13791e-20 1.2951e-20 -0.000290866 6.32511e-18 -3.48608e-17 1.01381e-31 0.001415 
3528 1 0.0516347 -0.000942708 0.00970725 0 0 0 -5.2465e-18 -2.38611e-18 -0.207843 -1.91023e-19 -8.6877e-20 -0.000290866 -5.81699e-17 1.27902e-16 9.49291e-31 0.001415 
2457 1 0.0227749 0.00368251 0.0100302 0 0 0 0 0 -0.207843 0 0 -0.000290866 0 0 0 0.001415 
6445 1 -0.0495051 0.00927345 0.0107917 0 0 0 -2.04068e-21 2.48602e-21 -0.207843 -1.03202e-21 1.25724e-21 -0.000290866 -2.39882e-17 -1.9691e-17 5.49619e-32 0.001415 
4431 1 -0.0620527 0.012605 0.0107862 0 0 0 -8.29282e-18 1.77153e-18 -0.207843 -3.99006e-19 8.52367e-20 -0.000290866 -1.08808e-16 -5.09346e-16 1.02522e-30 0.001415 
4346 1 0.0459771 0.0129104 0.00930271 0 0 0 -2.54629e-18 -8.94971e-19 -0.207843 -1.19392e-19 -4.1964e-20 -0.000290866 -2.43136e-17 6.91749e-17 -6.01739e-32 0.001415 
5820 1 0.0722357 0.0116248 0.0105807 0 0 0 2.63679e-18 -2.53439e-18 -0.207843 9.60826e-20 -9.23514e-20 -0.000290866 -6.47922e-17 -6.741e-17 -9.51702e-32 0.001415 
9995 1 -0.0283179 0.0187371 0.00926205 0 0 0 1.75264e-18 1.67429e-18 -0.207843 -1.55071e-24 -1.48138e-24 -0.000290866 -7.58382e-18 7.93871e-18 1.07774e-32 0.001415 
1280 1 -0.00826091 0.0224106 0.00990742 0 0 0 7.20072e-19 2.66736e-19 -0.207843 -6.37106e-25 -2.36003e-25 -0.000290866 -8.98055e-19 2.42436e-18 -9.39196e-34 0.001415 
3551 1 0.0378271 0.027027 0.00933845 0 0 0 1.07717e-18 -6.30157e-18 -0.207843 -9.53064e-25 5.57551e-24 -0.000290866 3.71294e-17 6.34681e-18 -1.16609e-32 0.001415 
3968 1 -0.0261983 0.0364757 0.0107236 0 0 0 4.69533e-18 -1.46892e-17 -0.207843 1.70568e-19 -5.33618e-19 -0.000290866 -9.30617e-16 -2.97467e-16 9.00188e-32 0.001415 
9745 1 -0.0323504 0.0411674 0.0100299 0 0 0 0 0 -0.207843 0 0 -0.000290866 0 0 0 0.001415 
485 1 0.0142511 0.04219 0.00976909 0 0 0 -2.85392e-18 2.41898e-18 -0.207843 2.52509e-24 -2.14027e-24 -0.000290866 -1.26422e-17 -1.49153e-17 1.1147e-32 0.001415 
4098 1 0.0474587 0.0419422 0.00997448 0 0 0 -3.79029e-19 1.28878e-19 -0.207843 3.9574e-20 -1.3456e-20 -0.000290866 5.9674e-19 1.755e-18 -7.30903e-32 0.001415 
4639 1 0.000319678 0.0462251 0.0103557 0 0 0 -4.68014e-18 2.52005e-18 -0.207843 -1.70793e-19 9.19643e-20 -0.000290866 6.73331e-17 1.25048e-16 -3.39023e-31 0.001415 
7349 1 0.0388392 0.0490157 0.0103237 0 0 0 -1.6827e-19 -2.84559e-18 -0.207843 -9.46708e-21 -1.60097e-19 -0.000290866 -3.67499e-16 2.17315e-17 -2.67721e-31 0.001415 
3318 1 0.0108764 -0.0748018 0.0124128 0 0 0 0 0 -0.207843 0 0 -0.000290866 0 0 0 0.001415 
5121 1 -0.0078553 -0.064238 0.0111657 0 0 0 -2.01276e-18 -7.08487e-19 -0.207843 -1.17447e-19 -4.13411e-20 -0.000290866 -1.66473e-16 4.72938e-16 6.37238e-30 0.001415 
6407 1 -0.0157638 -0.0542001 0.0120351 0 0 0 -4.69076e-18 1.36754e-18 -0.207843 -1.7094e-19 4.98356e-20 -0.000290866 -2.90557e-17 -9.96632e-17 -5.16483e-31 0.001415 
4748 1 -0.0463698 -0.05198 0.0127852 0 0 0 8.74245e-18 -1.27825e-18 -0.207843 2.32995e-19 -3.40665e-20 -0.000290866 -1.90369e-16 -1.30201e-15 6.55203e-31 0.001415 
8903 1 0.00719176 -0.0530399 0.0125609 0 0 0 -4.60528e-19 3.88799e-18 -0.207843 -2.86656e-20 2.42008e-19 -0.000290866 -4.84401e-16 -5.73768e-17 4.482e-30 0.001415 
8421 1 -0.0125515 -0.050364 0.0122383 0 0 0 0 0 -0.207843 0 0 -0.000290866 0 0 0 0.001415 
5040 1 0.0412118 -0.051077 0.0118154 0 0 0 0 0 -0.207843 0 0 -0.000290866 0 0 0 0.001415 
9218 1 -0.0344149 -0.0491301 0.0113222 0 0 0 -1.37497e-18 3.55907e-18 -0.207843 -8.45431e-20 2.18837e-19 -0.000290866 -3.15827e-16 -1.22013e-16 4.27679e-30 0.001415 
8294 1 0.0417911 -0.0460756 0.0115834 0 0 0 0 0 -0.207843 0 0 -0.000290866 0 0 0 0.001415 
8781 1 0.0111727 -0.0390904 0.0112286 0 0 0 -8.32751e-18 -3.79896e-18 -0.207843 -3.03336e-19 -1.3838e-19 -0.000290866 -4.44803e-16 9.7503e-16 2.88079e-31 0.001415 
7141 1 -0.0440609 -0.0300013 0.0127759 0 0 0 0 0 -0.207843 0 0 -0.000290866 0 0 0 0.001415 
6550 1 -0.00716818 -0.0295154 0.0123942 0 0 0 -1.42161e-18 2.3041e-19 -0.207843 -5.18726e-20 8.40733e-21 -0.000290866 -3.33815e-18 -2.05962e-17 4.83164e-33 0.001415 
9788 1 -0.0191042 -0.0222982 0.0126279 0 0 0 6.80996e-19 8.46797e-19 -0.207843 -2.92981e-20 -3.64312e-20 -0.000290866 4.39556e-16 -3.53492e-16 1.24143e-29 0.001415 
1405 1 0.0162037 -0.0193109 0.0124836 0 0 0 -7.34139e-18 -2.14774e-18 -0.207843 -3.72644e-19 -1.09018e-19 -0.000290866 1.10864e-16 -3.78955e-16 1.4755e-30 0.001415 
8819 1 0.00974619 -0.0192248 0.0126587 0 0 0 3.29307e-19 1.01284e-17 -0.207843 1.58009e-20 4.85986e-19 -0.000290866 4.64291e-17 -1.50955e-18 -4.21548e-30 0.001415 
4472 1 -0.0211077 -0.0159411 0.0127332 0 0 0 -4.15634e-18 1.42076e-17 -0.207843 -1.84101e-19 6.29308e-19 -0.000290866 -1.34611e-15 -3.93796e-16 1.19758e-30 0.001415 
4389 1 -0.00210167 -0.0164576 0.0114253 0 0 0 7.11587e-19 -3.4689e-19 -0.207843 5.67245e-20 -2.76525e-20 -0.000290866 -1.43055e-16 -2.93453e-16 -8.26919e-31 0.001415 
2098 1 -0.0163785 -0.0113032 0.0122466 0 0 0 -1.93889e-18 -3.5179e-19 -0.207843 -7.13774e-20 -1.29507e-20 -0.000290866 3.61246e-18 -1.99101e-17 4.32692e-32 0.001415 
4518 1 0.00403554 -0.00678852 0.0109771 0 0 0 -5.21615e-18 6.22703e-18 -0.207843 -2.50264e-19 2.98764e-19 -0.000290866 -1.90442e-16 -1.59526e-16 -1.35752e-29 0.001415 
9888 1 -0.0548111 -0.00420847 0.0110198 0 0 0 9.73755e-19 -1.2162e-18 -0.207843 6.38246e-20 -7.97159e-20 -0.000290866 -3.12918e-16 -2.50538e-16 -2.50252e-30 0.001415 
3527 1 0.053278 -0.000195356 0.0118867 0 0 0 5.2465e-18 2.38611e-18 -0.207843 1.91023e-19 8.6877e-20 -0.000290866 -5.81699e-17 1.27902e-16 9.49291e-31 0.001415 
4852 1 -0.0576017 0.00160357 0.0126477 0 0 0 2.14571e-18 3.52065e-18 -0.207843 1.29917e-19 2.13166e-19 -0.000290866 -1.17544e-17 7.16387e-18 1.55312e-29 0.001415 
2456 1 0.0231999 0.00341526 0.0128154 0 0 0 -1.11088e-16 6.98605e-17 -0.207843 -2.68447e-18 1.68819e-18 -0.000290866 -3.97613e-16 -6.32262e-16 -2.02752e-30 0.001415 
1470 1 -0.0541433 0.00552442 0.0112674 0 0 0 5.86121e-18 5.64818e-18 -0.207843 3.03509e-19 2.92478e-19 -0.000290866 -3.7204e-16 3.86073e-16 7.78997e-30 0.001415 
7478 1 0.0063252 0.00556124 0.0111136 0 0 0 0 0 -0.207843 0 0 -0.000290866 0 0 0 0.001415 
5545 1 -0.0302182 0.00727945 0.0114077 0 0 0 0 0 -0.207843 0 0 -0.000290866 0 0 0 0.001415 
4367 1 0.0426483 0.0117219 0.0113133 0 0 0 -2.12148e-18 1.91373e-18 -0.207843 -1.37983e-19 1.24471e-19 -0.000290866 1.97011e-16 2.18398e-16 1.73894e-31 0.001415 
4345 1 0.0473197 0.0133822 0.0117489 0 0 0 3.27461e-18 1.15096e-18 -0.207843 1.19392e-19 4.19638e-20 -0.000290866 -2.40451e-17 6.84109e-17 -6.01414e-32 0.001415 
9994 1 -0.0272948 0.0197145 0.0117129 0 0 0 -5.4934e-18 -5.24783e-18 -0.207843 -2.7338e-19 -2.61159e-19 -0.000290866 3.20061e-16 -3.35039e-16 6.41391e-30 0.001415 
1279 1 -0.00741294 0.0227247 0.0125891 0 0 0 -6.57363e-18 -2.43507e-18 -0.207843 -3.22998e-19 -1.19648e-19 -0.000290866 -1.23407e-16 3.33146e-16 -6.96535e-31 0.001415 
2812 1 0.0619348 0.0249338 0.0112659 0 0 0 3.54665e-19 1.79954e-18 -0.207843 3.1386e-20 1.5925e-19 -0.000290866 4.73435e-16 -9.33076e-17 -5.44145e-30 0.001415 
4219 1 0.00713294 0.0263879 0.0110755 0 0 0 2.47562e-19 -1.82964e-18 -0.207843 2.20567e-20 -1.63013e-19 -0.000290866 4.29037e-17 5.80514e-18 1.15077e-31 0.001415 
3552 1 0.038076 0.0255707 0.0117522 0 0 0 -2.49018e-19 1.45678e-18 -0.207843 -1.9435e-20 1.13696e-19 -0.000290866 -2.57278e-16 -4.39784e-17 5.89514e-30 0.001415 
9955 1 0.0480973 0.0295036 0.0120476 0 0 0 0 0 -0.207843 0 0 -0.000290866 0 0 0 0.001415 
6216 1 -0.023401 0.0310553 0.0111449 0 0 0 -7.87935e-19 -3.66355e-18 -0.207843 -2.89463e-20 -1.34588e-19 -0.000290866 -5.34393e-17 1.14934e-17 -2.426e-31 0.001415 
8775 1 0.0134757 0.0326995 0.0116309 0 0 0 -4.21793e-20 7.09862e-20 -0.207843 -1.47864e-20 2.4885e-20 -0.000290866 2.18892e-16 1.30063e-16 -8.85786e-31 0.001415 
7874 1 -0.0157052 0.0360712 0.0113589 0 0 0 -1.25378e-18 -1.48302e-18 -0.207843 -4.56838e-20 -5.40368e-20 -0.000290866 4.29434e-17 -3.63052e-17 -7.77435e-33 0.001415 
4099 1 0.0465216 0.0422608 0.0126258 0 0 0 -1.08058e-18 3.67421e-19 -0.207843 -3.95727e-20 1.34556e-20 -0.000290866 2.11752e-18 6.22761e-18 -7.16283e-32 0.001415 
9746 1 -0.0326219 0.0429159 0.0122385 0 0 0 7.92214e-19 -5.10214e-18 -0.207843 4.57251e-20 -2.94486e-19 -0.000290866 5.2954e-16 8.22222e-17 -2.37302e-30 0.001415 
486 1 0.0131757 0.0431015 0.012223 0 0 0 8.93964e-18 -7.57723e-18 -0.207843 4.09406e-19 -3.47012e-19 -0.000290866 9.02453e-16 1.06472e-15 6.29524e-30 0.001415 
8316 1 0.0241447 0.055508 0.0127906 0 0 0 0 0 -0.207843 0 0 -0.000290866 0 0 0 0.001415 
6048 1 -0.0014895 0.0671831 0.0116381 0 0 0 -4.57872e-18 -2.75145e-19 -0.207843 -2.73191e-19 -1.64166e-20 -0.000290866 6.89624e-18 -1.14761e-16 -3.41965e-31 0.001415 
3317 1 0.00879117 -0.0741345 0.0142059 0 0 0 3.00778e-16 -9.62531e-17 -0.207843 8.23062e-18 -2.63391e-18 -0.000290866 2.6366e-16 8.23902e-16 1.91972e-29 0.001415 
4537 1 0.0348065 -0.0668743 0.0141839 0 0 0 9.87581e-17 -1.92325e-16 -0.207843 2.66161e-18 -5.1833e-18 -0.000290866 2.45827e-15 1.26231e-15 -1.17165e-29 0.001415 
5120 1 -0.00732864 -0.0640527 0.0139401 0 0 0 -1.21523e-16 -4.27759e-17 -0.207843 -3.12433e-18 -1.09975e-18 -0.000290866 4.51226e-16 -1.2819e-15 6.76875e-30 0.001415 
4749 1 -0.0443437 -0.0522762 0.0147386 0 0 0 -2.25613e-16 3.29872e-17 -0.207843 -5.25268e-18 7.68002e-19 -0.000290866 1.37461e-16 9.40151e-16 4.53146e-30 0.001415 
6408 1 -0.0176936 -0.0536375 0.0140271 0 0 0 3.22943e-16 -9.41504e-17 -0.207843 8.86129e-18 -2.58341e-18 -0.000290866 2.18618e-16 7.49877e-16 3.19335e-29 0.001415 
9217 1 -0.0337766 -0.0507822 0.0135294 0 0 0 -1.03271e-16 2.67314e-16 -0.207843 -2.66172e-18 6.88977e-18 -0.000290866 -3.62347e-16 -1.39985e-16 2.08309e-29 0.001415 
5039 1 0.0393096 -0.0515993 0.0138446 0 0 0 2.95367e-16 8.11017e-17 -0.207843 8.04252e-18 2.20831e-18 -0.000290866 -9.27431e-17 3.37764e-16 -2.18687e-30 0.001415 
8420 1 -0.0130316 -0.0490822 0.0147153 0 0 0 9.81877e-17 -2.62181e-16 -0.207843 2.61771e-18 -6.98981e-18 -0.000290866 8.83677e-16 3.3094e-16 -5.05537e-30 0.001415 
8293 1 0.0410995 -0.0444363 0.0137842 0 0 0 1.28715e-16 -3.05079e-16 -0.207843 3.50745e-18 -8.3133e-18 -0.000290866 -1.57617e-15 -6.64998e-16 2.44338e-29 0.001415 
8782 1 0.00995582 -0.0396456 0.0137225 0 0 0 2.22124e-16 1.01332e-16 -0.207843 5.54405e-18 2.52916e-18 -0.000290866 3.1916e-16 -6.99614e-16 7.43718e-30 0.001415 
164 1 0.0235073 -0.0400101 0.0129235 0 0 0 8.15851e-18 1.08896e-16 -0.207843 2.04765e-19 2.73311e-18 -0.000290866 -1.24196e-15 9.3048e-17 2.72371e-30 0.001415 
1765 1 -0.00582286 -0.0341936 0.0144774 0 0 0 2.52217e-16 -7.89283e-17 -0.207843 6.71069e-18 -2.10003e-18 -0.000290866 -3.495e-16 -1.11683e-15 -1.76859e-29 0.001415 
2898 1 -0.0015393 -0.0260351 0.0147496 0 0 0 1.83631e-16 -3.62505e-17 -0.207843 4.91147e-18 -9.6957e-19 -0.000290866 3.45495e-16 1.75014e-15 8.99514e-31 0.001415 
1113 1 0.057839 -0.0250229 0.0136062 0 0 0 2.7588e-16 1.41539e-16 -0.207843 7.3864e-18 3.78956e-18 -0.000290866 2.10268e-16 -4.09844e-16 -5.47041e-29 0.001415 
2604 1 -0.0264828 -0.0239558 0.0144741 0 0 0 2.59015e-16 -1.12774e-17 -0.207843 6.95206e-18 -3.02689e-19 -0.000290866 -5.23157e-17 -1.20157e-15 4.42557e-30 0.001415 
8818 1 0.00968245 -0.0211851 0.0146988 0 0 0 9.16654e-18 2.81934e-16 -0.207843 2.35792e-19 7.25222e-18 -0.000290866 -4.12438e-16 1.34096e-17 -4.76299e-30 0.001415 
3530 1 0.0663652 -0.0174708 0.0135559 0 0 0 1.73781e-16 2.13437e-16 -0.207843 4.92489e-18 6.04874e-18 -0.000290866 -1.67857e-15 1.36669e-15 -5.51004e-30 0.001415 
8587 1 -0.0404076 -0.0166605 0.0129259 0 0 0 1.36757e-17 -1.80606e-16 -0.207843 6.28321e-19 -8.29783e-18 -0.000290866 1.95925e-15 1.48357e-16 2.27219e-30 0.001415 
4388 1 -0.00265555 -0.0161876 0.0141874 0 0 0 1.24106e-16 -6.05004e-17 -0.207843 3.18612e-18 -1.55319e-18 -0.000290866 5.61493e-16 1.15181e-15 -1.64354e-30 0.001415 
2097 1 -0.0180782 -0.0116116 0.0144881 0 0 0 3.00734e-16 5.45649e-17 -0.207843 7.9378e-18 1.44023e-18 -0.000290866 2.34536e-16 -1.29264e-15 -1.90606e-29 0.001415 
5436 1 0.0238697 -0.0121851 0.0128484 0 0 0 -1.58324e-18 3.00839e-18 -0.207843 -1.54354e-20 2.93295e-20 -0.000290866 1.32667e-16 6.98192e-17 -6.2027e-30 0.001415 
4519 1 0.0050482 -0.00799743 0.013327 0 0 0 -1.44772e-16 1.72828e-16 -0.207843 -3.35666e-18 4.00718e-18 -0.000290866 -4.58215e-16 -3.8383e-16 -1.10821e-29 0.001415 
9887 1 -0.0551901 -0.00373509 0.0137841 0 0 0 8.70882e-17 -1.08772e-16 -0.207843 2.23169e-18 -2.78734e-18 -0.000290866 1.13007e-15 9.04795e-16 -5.22393e-30 0.001415 
4853 1 -0.0586257 -7.65915e-05 0.0146817 0 0 0 1.56046e-16 2.56038e-16 -0.207843 4.08997e-18 6.71078e-18 -0.000290866 -1.36053e-15 8.29194e-16 -4.23275e-30 0.001415 
9744 1 -0.0476714 0.00124731 0.0135683 0 0 0 9.57424e-19 1.09059e-18 -0.207843 6.80734e-20 7.75413e-20 -0.000290866 1.24411e-17 -1.0922e-17 8.70071e-30 0.001415 
3403 1 0.0399954 0.00144601 0.0137032 0 0 0 -2.57971e-16 1.22078e-17 -0.207843 -6.45802e-18 3.05607e-19 -0.000290866 -3.70588e-17 -7.83118e-16 4.82437e-30 0.001415 
3526 1 0.0549212 0.000551996 0.0140662 0 0 0 -3.02877e-16 -1.37748e-16 -0.207843 -8.33341e-18 -3.79003e-18 -0.000290866 -6.61531e-16 1.45455e-15 -9.38699e-29 0.001415 
3843 1 -0.0432547 0.00201405 0.0142887 0 0 0 2.42995e-16 1.65568e-16 -0.207843 6.36274e-18 4.33533e-18 -0.000290866 4.62009e-17 -6.78065e-17 5.70308e-30 0.001415 
6238 1 0.0476834 0.00358837 0.0138242 0 0 0 3.07957e-16 -1.98144e-16 -0.207843 8.78666e-18 -5.65349e-18 -0.000290866 9.98235e-17 1.55146e-16 -8.31178e-31 0.001415 
1469 1 -0.0554428 0.00427207 0.0134472 0 0 0 2.24445e-16 2.16287e-16 -0.207843 5.90694e-18 5.69224e-18 -0.000290866 2.40811e-16 -2.49894e-16 1.29075e-30 0.001415 
7479 1 0.00708078 0.00479504 0.013731 0 0 0 -1.62818e-16 1.65108e-16 -0.207843 -4.26556e-18 4.32554e-18 -0.000290866 -1.16865e-15 -1.15244e-15 -3.30351e-29 0.001415 
6444 1 -0.0485008 0.00805 0.0131376 0 0 0 -2.27731e-18 2.77429e-18 -0.207843 -1.62506e-19 1.9797e-19 -0.000290866 -4.74208e-16 -3.89258e-16 -9.07941e-30 0.001415 
5546 1 -0.0286421 0.00814112 0.0135946 0 0 0 -3.0688e-16 -1.67776e-16 -0.207843 -8.45819e-18 -4.62421e-18 -0.000290866 -1.18465e-15 2.16685e-15 -8.72939e-29 0.001415 
7897 1 0.0202104 0.0106666 0.0129905 0 0 0 1.48236e-18 7.06584e-18 -0.207843 7.66121e-20 3.6518e-19 -0.000290866 2.74323e-16 -5.7551e-17 2.36393e-30 0.001415 
4366 1 0.0434972 0.010956 0.0139021 0 0 0 -1.84546e-16 1.66474e-16 -0.207843 -4.83757e-18 4.36384e-18 -0.000290866 -8.87469e-16 -9.83811e-16 -1.00677e-30 0.001415 
4430 1 -0.0607358 0.0123237 0.0132753 0 0 0 -2.23056e-16 4.76499e-17 -0.207843 -5.36944e-18 1.14703e-18 -0.000290866 -1.11601e-16 -5.22422e-16 6.19503e-30 0.001415 
5821 1 0.071151 0.0126674 0.0129777 0 0 0 -2.63679e-18 2.53439e-18 -0.207843 -9.60826e-20 9.23514e-20 -0.000290866 -6.47922e-17 -6.741e-17 -9.51702e-32 0.001415 
4344 1 0.0486622 0.0138541 0.0141951 0 0 0 -2.74718e-16 -9.65579e-17 -0.207843 -7.32001e-18 -2.57284e-18 -0.000290866 1.52688e-16 -4.34413e-16 3.11358e-29 0.001415 
5629 1 -0.00809486 0.0186934 0.0140684 0 0 0 2.68913e-16 4.70426e-18 -0.207843 6.86953e-18 1.20173e-19 -0.000290866 3.40556e-17 -1.94675e-15 -3.10638e-31 0.001415 
9993 1 -0.0262716 0.020692 0.0141638 0 0 0 -1.73489e-16 -1.65734e-16 -0.207843 -4.20222e-18 -4.01437e-18 -0.000290866 -5.80362e-16 6.0752e-16 2.0698e-29 0.001415 
3553 1 0.038325 0.0241144 0.014166 0 0 0 -4.07497e-17 2.38389e-16 -0.207843 -9.75092e-19 5.70438e-18 -0.000290866 3.91624e-16 6.69432e-17 6.71599e-30 0.001415 
2811 1 0.0616855 0.0236687 0.0137851 0 0 0 5.30086e-17 2.68961e-16 -0.207843 1.3887e-18 7.04614e-18 -0.000290866 -1.95592e-15 3.85484e-16 -1.49098e-29 0.001415 
4218 1 0.00694369 0.0277865 0.0135284 0 0 0 3.44856e-17 -2.54871e-16 -0.207843 8.63355e-19 -6.38075e-18 -0.000290866 -3.33673e-16 -4.5148e-17 -6.02595e-32 0.001415 
9956 1 0.047731 0.0274693 0.0139806 0 0 0 5.30624e-17 2.94697e-16 -0.207843 1.44523e-18 8.02649e-18 -0.000290866 -7.06581e-16 1.27225e-16 -4.83818e-30 0.001415 
6007 1 0.0347873 0.0296881 0.0137504 0 0 0 8.15987e-17 9.14294e-17 -0.207843 2.03665e-18 2.28201e-18 -0.000290866 -1.0288e-15 9.18186e-16 7.30028e-30 0.001415 
8774 1 0.0137081 0.0323084 0.0144241 0 0 0 -5.42553e-17 9.13096e-17 -0.207843 -1.40795e-18 2.36952e-18 -0.000290866 -1.0542e-15 -6.26397e-16 1.62547e-30 0.001415 
6215 1 -0.0229502 0.0331509 0.0129926 0 0 0 1.70429e-19 7.92422e-19 -0.207843 -1.13947e-20 -5.29802e-20 -0.000290866 3.20872e-16 -6.90113e-17 -2.16012e-30 0.001415 
3967 1 -0.0257836 0.0351781 0.0132041 0 0 0 -9.02395e-17 2.82311e-16 -0.207843 -2.4312e-18 7.60594e-18 -0.000290866 -1.07169e-15 -3.4256e-16 2.13486e-29 0.001415 
7873 1 -0.0162209 0.0354611 0.0140738 0 0 0 1.18305e-16 1.39936e-16 -0.207843 3.07123e-18 3.63278e-18 -0.000290866 -2.1242e-15 1.79584e-15 2.8299e-30 0.001415 
6847 1 -0.0500743 0.0395872 0.0142304 0 0 0 -2.90694e-16 1.25383e-16 -0.207843 -8.27812e-18 3.57054e-18 -0.000290866 6.25768e-16 1.45081e-15 -2.66155e-29 0.001415 
487 1 0.0121003 0.044013 0.0146769 0 0 0 1.78485e-16 -1.51283e-16 -0.207843 4.30095e-18 -3.64548e-18 -0.000290866 1.65237e-16 1.94947e-16 2.04045e-29 0.001415 
9747 1 -0.0328934 0.0446643 0.0144471 0 0 0 4.67821e-17 -3.01294e-16 -0.207843 1.2242e-18 -7.88432e-18 -0.000290866 -4.04224e-16 -6.27641e-17 -3.00365e-30 0.001415 
4638 1 0.00148191 0.0455993 0.012859 0 0 0 3.4081e-18 -1.83511e-18 -0.207843 7.08298e-20 -3.81387e-20 -0.000290866 2.30134e-17 4.27395e-17 5.19649e-31 0.001415 
7348 1 0.0388741 0.0496065 0.0130911 0 0 0 -8.15799e-18 -1.37959e-16 -0.207843 -2.09615e-19 -3.54477e-18 -0.000290866 1.55368e-15 -9.18745e-17 -5.20526e-31 0.001415 
8315 1 0.0261215 0.0546907 0.0146434 0 0 0 -2.92549e-16 1.20948e-16 -0.207843 -7.97668e-18 3.29778e-18 -0.000290866 -3.50339e-16 -8.474e-16 8.12502e-29 0.001415 
4831 1 0.0293284 0.0560787 0.0132599 0 0 0 2.55522e-16 -1.42043e-16 -0.207843 6.72042e-18 -3.73582e-18 -0.000290866 -4.62711e-16 -8.32376e-16 -1.42283e-29 0.001415 
6909 1 0.00964204 0.0590336 0.013294 0 0 0 2.70292e-17 -1.62858e-17 -0.207843 1.10658e-18 -6.66744e-19 -0.000290866 9.78784e-16 1.62447e-15 -2.02849e-30 0.001415 
6047 1 -2.16486e-05 0.0672713 0.0140561 0 0 0 -2.97262e-16 -1.78631e-17 -0.207843 -7.732e-18 -4.64633e-19 -0.000290866 4.63752e-17 -7.71734e-16 7.02136e-31 0.001415 
7455 1 0.00864732 0.0657086 0.0142024 0 0 0 -1.23605e-17 2.93117e-16 -0.207843 -3.23345e-19 7.66778e-18 -0.000290866 -4.83937e-16 -2.04073e-17 -3.27822e-30 0.001415 
8757 1 0.00829498 0.0765507 0.0136489 0 0 0 0 0 -0.207843 0 0 -0.000290866 0 0 0 0.001415 
3316 1 0.00670592 -0.0734672 0.0159991 0 0 0 -3.00778e-16 9.62531e-17 -0.207843 -8.23062e-18 2.63391e-18 -0.000290866 2.6366e-16 8.23902e-16 1.91972e-29 0.001415 
2499 1 0.0564696 -0.0568217 0.016146 0 0 0 2.5517e-18 -5.83809e-18 -0.207843 9.37808e-20 -2.14563e-19 -0.000290866 -6.49387e-17 -2.83833e-17 -1.39373e-31 0.001415 
8902 1 0.00739974 -0.0547957 0.0147706 0 0 0 -3.5588e-17 3.0045e-16 -0.207843 -9.25763e-19 7.81572e-18 -0.000290866 1.82059e-17 2.15647e-18 1.01271e-29 0.001415 
4054 1 -0.0359786 -0.0521436 0.0164326 0 0 0 0 0 -0.207843 0 0 -0.000290866 0 0 0 0.001415 
9216 1 -0.0331383 -0.0524344 0.0157367 0 0 0 1.01793e-16 -2.63487e-16 -0.207843 2.59972e-18 -6.7293e-18 -0.000290866 3.377e-16 1.30463e-16 1.0442e-29 0.001415 
6409 1 -0.0196234 -0.0530749 0.0160192 0 0 0 -3.22943e-16 9.41504e-17 -0.207843 -8.86129e-18 2.58341e-18 -0.000290866 2.18618e-16 7.49877e-16 3.19335e-29 0.001415 
5038 1 0.0374074 -0.0521216 0.0158739 0 0 0 -2.75634e-16 -7.56835e-17 -0.207843 -7.18744e-18 -1.97353e-18 -0.000290866 -9.16873e-17 3.33919e-16 1.29745e-29 0.001415 
8292 1 0.0404079 -0.0427971 0.015985 0 0 0 -1.26096e-16 2.98871e-16 -0.207843 -3.36259e-18 7.96996e-18 -0.000290866 -1.61018e-15 -6.79348e-16 2.47984e-29 0.001415 
163 1 0.0234703 -0.0405039 0.0157098 0 0 0 -8.15845e-18 -1.08895e-16 -0.207843 -2.04738e-19 -2.73276e-18 -0.000290866 -1.15044e-15 8.61914e-17 2.89191e-30 0.001415 
8783 1 0.00873888 -0.0402008 0.0162165 0 0 0 -2.19343e-16 -1.00063e-16 -0.207843 -5.36763e-18 -2.44868e-18 -0.000290866 2.34419e-16 -5.13859e-16 8.2853e-30 0.001415 
1766 1 -0.00794199 -0.0335305 0.0162319 0 0 0 -2.35567e-16 7.37177e-17 -0.207843 -5.99293e-18 1.87542e-18 -0.000290866 -3.28377e-16 -1.04933e-15 -7.50265e-30 0.001415 
7142 1 -0.0430179 -0.0310366 0.0151945 0 0 0 -1.96222e-16 1.9477e-16 -0.207843 -5.06281e-18 5.02534e-18 -0.000290866 5.99571e-16 6.04042e-16 -3.14663e-29 0.001415 
6549 1 -0.00774795 -0.0294214 0.0151626 0 0 0 1.41736e-16 -2.2972e-17 -0.207843 3.75875e-18 -6.09205e-19 -0.000290866 2.71115e-16 1.67276e-15 -1.24006e-31 0.001415 
1112 1 0.0563793 -0.0257718 0.0159121 0 0 0 -2.7588e-16 -1.41539e-16 -0.207843 -7.3864e-18 -3.78956e-18 -0.000290866 2.10268e-16 -4.09844e-16 -5.47041e-29 0.001415 