ITEM: TIMESTEP
240000
ITEM: NUMBER OF ATOMS
10248
ITEM: BOX BOUNDS ff ff ff
-0.2 0.2
-0.2 0.2
-0.01 0.5
ITEM: ATOMS id type x y z ix iy iz vx vy vz fx fy fz omegax omegay omegaz radius 
168 1 0.0237224 -0.0371398 0.00142272 0 0 0 0.0326136 0.435312 -0.00400296 -4.32833e-08 -5.77726e-07 -0.000291044 -307.726 23.0549 2.92758e-12 0.001415 
5124 1 -0.00943529 -0.0647942 0.00193276 0 0 0 -6.51748e-17 -2.29413e-17 -0.247055 -3.21597e-18 -1.13201e-18 -0.000290812 5.48231e-16 -1.55749e-15 -1.62111e-30 0.001415 
9891 1 -0.0536741 -0.00562861 0.00181723 0 0 0 3.98557e-17 -4.97791e-17 -0.247055 2.29095e-18 -2.86136e-18 -0.000290812 1.81555e-15 1.45362e-15 -5.70712e-30 0.001415 
8778 1 0.0127785 0.033873 0.00234154 0 0 0 -2.78693e-17 4.69029e-17 -0.247055 -1.34393e-18 2.26179e-18 -0.000290812 -1.00445e-15 -5.96832e-16 1.81358e-30 0.001415 
5123 1 -0.00890863 -0.0646088 0.00470714 0 0 0 6.42385e-17 2.26118e-17 -0.247055 3.21597e-18 1.13201e-18 -0.000290812 5.46782e-16 -1.55337e-15 -1.6183e-30 0.001415 
167 1 0.0236645 -0.0379122 0.00421287 0 0 0 0.0225713 0.301272 0.00320213 -2.40872e-08 -3.21505e-07 -0.000291053 400.649 -30.0167 1.61869e-11 0.001415 
5439 1 0.0255064 -0.015295 0.00421011 0 0 0 6.69694e-19 -1.27252e-18 -0.247055 -6.43325e-25 1.22241e-24 -0.000290812 -5.23836e-18 -2.75681e-18 2.22068e-33 0.001415 
9890 1 -0.0540531 -0.00515523 0.0045815 0 0 0 -3.89437e-17 4.86401e-17 -0.247055 -2.29095e-18 2.86136e-18 -0.000290812 1.80955e-15 1.44882e-15 -5.70744e-30 0.001415 
5818 1 0.0744051 0.00953964 0.00487703 0 0 0 2.36843e-19 -2.27646e-19 -0.247055 -2.27517e-25 2.18682e-25 -0.000290812 -2.53149e-19 -2.63377e-19 -1.7176e-34 0.001415 
4096 1 0.0493328 0.0413049 0.00376212 0 0 0 4.86662e-16 -1.65476e-16 -0.247055 2.44694e-17 -8.32013e-18 -0.000290812 -1.8452e-15 -5.42672e-15 -5.29045e-30 0.001415 
4641 1 -0.00200478 0.0474767 0.00443931 0 0 0 -2.10625e-18 1.13413e-18 -0.247055 2.02332e-24 -1.08947e-24 -0.000290812 5.34789e-18 9.93189e-18 -2.46501e-33 0.001415 
166 1 0.0235576 -0.0393383 0.00683765 0 0 0 -0.0114049 -0.152227 -0.0726287 9.2351e-09 1.23266e-07 -0.000290991 -76.3111 5.71724 -1.31796e-11 0.001415 
8779 1 0.0136066 -0.0379801 0.0053309 0 0 0 3.65913e-19 1.66928e-19 -0.247055 -3.51506e-25 -1.60355e-25 -0.000290812 1.63535e-17 -3.58476e-17 1.79989e-31 0.001415 
6552 1 -0.00600865 -0.0297033 0.00594766 0 0 0 2.04948e-18 -3.32173e-19 -0.247055 -1.96878e-24 3.19094e-25 -0.000290812 6.38133e-18 3.93724e-17 -8.49602e-32 0.001415 
1407 1 0.0135434 -0.0200891 0.00663899 0 0 0 -1.74864e-18 -5.11568e-19 -0.247055 1.67979e-24 4.91425e-25 -0.000290812 -4.03609e-18 1.37962e-17 1.86114e-33 0.001415 
8589 1 -0.0402517 -0.0187189 0.00674596 0 0 0 2.10719e-19 -2.78283e-18 -0.247055 -2.02422e-25 2.67326e-24 -0.000290812 -2.89138e-16 -2.18938e-17 -5.27883e-30 0.001415 
5438 1 0.0249608 -0.0142584 0.00678629 0 0 0 9.22603e-16 -1.75308e-15 -0.247055 1.10343e-17 -2.09668e-17 -0.000290812 -3.79175e-14 -1.9955e-14 -2.25657e-28 0.001415 
2100 1 -0.012979 -0.0106864 0.0068536 0 0 0 2.25554e-15 4.09244e-16 -0.247055 2.86283e-17 5.1943e-18 -0.000290812 3.12883e-17 -1.72445e-16 6.0954e-28 0.001415 
4516 1 0.00201022 -0.00437069 0.00536759 0 0 0 -1.79078e-18 2.13783e-18 -0.247055 1.72027e-24 -2.05365e-24 -0.000290812 1.56444e-17 1.31048e-17 -1.84133e-31 0.001415 
6447 1 -0.0515136 0.0117203 0.00518997 0 0 0 -1.27924e-18 1.55842e-18 -0.247055 1.22888e-24 -1.49706e-24 -0.000290812 3.38224e-18 2.77635e-18 -3.23409e-32 0.001415 
4347 1 0.0446345 0.0124385 0.00594674 0 0 0 -1.91536e-18 -6.7321e-19 -0.247055 1.83994e-24 6.46703e-25 -0.000290812 2.63662e-17 -7.50146e-17 -5.77324e-31 0.001415 
9996 1 -0.0293411 0.0177597 0.0059014 0 0 0 -4.59979e-18 -4.39417e-18 -0.247055 4.41868e-24 4.22115e-24 -0.000290812 -8.26021e-17 8.64675e-17 2.86353e-31 0.001415 
1281 1 -0.00910888 0.0220965 0.00631599 0 0 0 -1.82236e-18 -6.75056e-19 -0.247055 1.75061e-24 6.48476e-25 -0.000290812 -7.25587e-18 1.95877e-17 2.41316e-32 0.001415 
4221 1 0.00751144 0.0235905 0.00525983 0 0 0 6.82593e-20 -5.0448e-19 -0.247055 -6.55716e-26 4.84616e-25 -0.000290812 2.47609e-17 3.35031e-18 -8.09376e-32 0.001415 
3550 1 0.0375782 0.0284832 0.00601489 0 0 0 -3.48934e-18 2.0413e-17 -0.247055 3.35195e-24 -1.96092e-23 -0.000290812 5.78791e-17 9.89371e-18 -7.52489e-31 0.001415 
2814 1 0.0624335 0.0274639 0.00531776 0 0 0 3.78027e-19 1.91808e-18 -0.247055 -3.63143e-25 -1.84256e-24 -0.000290812 -7.74874e-17 1.52717e-17 2.75193e-31 0.001415 
8777 1 0.0130109 0.0334818 0.00513473 0 0 0 2.73042e-17 -4.59519e-17 -0.247055 1.34393e-18 -2.26179e-18 -0.000290812 -1.02442e-15 -6.087e-16 1.74146e-30 0.001415 
484 1 0.0153265 0.0412785 0.0064054 0 0 0 8.07167e-18 -6.84153e-18 -0.247055 -7.75385e-24 6.57215e-24 -0.000290812 -1.67019e-16 -1.97049e-16 -2.16221e-31 0.001415 
4097 1 0.0483957 0.0416236 0.0064134 0 0 0 -4.81369e-16 1.63676e-16 -0.247055 -2.44694e-17 8.32013e-18 -0.000290812 -1.669e-15 -4.90849e-15 -1.01516e-29 0.001415 
4640 1 -0.000842548 0.0468509 0.0069426 0 0 0 -2.14617e-15 1.15562e-15 -0.247055 -2.49566e-17 1.34381e-17 -0.000290812 1.344e-14 2.49603e-14 -1.74561e-27 0.001415 
7350 1 0.0388042 0.0484249 0.00664647 0 0 0 -1.64642e-20 -2.78425e-19 -0.247055 1.58159e-26 2.67462e-25 -0.000290812 -3.95007e-17 2.33581e-18 8.79198e-32 0.001415 
5122 1 -0.00838197 -0.0644234 0.00748151 0 0 0 -3.73629e-16 -1.31516e-16 -0.247055 -5.26735e-18 -1.85409e-18 -0.000290812 -8.28191e-16 2.35284e-15 -1.08262e-28 0.001415 
9219 1 -0.0350531 -0.0474779 0.00820513 0 0 0 0 0 -0.247055 0 0 -0.000290812 0 0 0 0.001415 
8295 1 0.0424827 -0.0477148 0.00847285 0 0 0 0 0 -0.247055 0 0 -0.000290812 0 0 0 0.001415 
8780 1 0.0123897 -0.0385353 0.00782484 0 0 0 4.66385e-17 2.12762e-17 -0.247055 2.80318e-19 1.2788e-19 -0.000290812 -3.67868e-15 8.06384e-15 -1.60543e-29 0.001415 
6551 1 -0.00658842 -0.0296093 0.00871604 0 0 0 5.83225e-18 -9.45271e-19 -0.247055 5.07774e-20 -8.22982e-21 -0.000290812 -1.95965e-16 -1.20909e-15 1.10324e-30 0.001415 
9889 1 -0.0544321 -0.00468185 0.00734576 0 0 0 4.05205e-16 -5.06094e-16 -0.247055 5.99586e-18 -7.48873e-18 -0.000290812 -1.23711e-15 -9.90492e-16 -1.36273e-30 0.001415 
4517 1 0.00302288 -0.0055796 0.00771747 0 0 0 4.71652e-19 -5.63057e-19 -0.247055 -4.53081e-25 5.40887e-25 -0.000290812 5.92957e-17 4.96697e-17 -1.96526e-31 0.001415 
3528 1 0.0516347 -0.000942708 0.00879745 0 0 0 -2.85853e-17 -1.30006e-17 -0.247055 -1.55432e-19 -7.06905e-20 -0.000290812 -2.1263e-15 4.67524e-15 -3.18943e-29 0.001415 
7477 1 0.00556963 0.00632744 0.00758637 0 0 0 -1.01964e-16 1.03398e-16 -0.247055 -1.21095e-18 1.22798e-18 -0.000290812 -8.89448e-16 -8.77114e-16 2.87006e-29 0.001415 
6446 1 -0.0505093 0.0104969 0.00753593 0 0 0 -5.10803e-17 6.22277e-17 -0.247055 1.07583e-20 -1.31062e-20 -0.000290812 -1.09618e-15 -8.99811e-16 -3.23994e-30 0.001415 
5819 1 0.0733204 0.0105822 0.00727397 0 0 0 5.76024e-16 -5.53655e-16 -0.247055 8.16601e-18 -7.8489e-18 -0.000290812 3.38961e-15 3.52656e-15 1.70498e-28 0.001415 
4368 1 0.0417993 0.0124877 0.00781478 0 0 0 0 0 -0.247055 0 0 -0.000290812 0 0 0 0.001415 
4346 1 0.0459771 0.0129104 0.00839292 0 0 0 -1.7018e-17 -5.98151e-18 -0.247055 -1.26147e-19 -4.43381e-20 -0.000290812 -6.1721e-16 1.75603e-15 7.70419e-30 0.001415 
9995 1 -0.0283179 0.0187371 0.00835225 0 0 0 4.59979e-18 4.39417e-18 -0.247055 -4.41868e-24 -4.22115e-24 -0.000290812 -8.26021e-17 8.64675e-17 2.86353e-31 0.001415 
4220 1 0.00732219 0.0249892 0.00771274 0 0 0 3.021e-18 -2.23271e-17 -0.247055 -2.90205e-24 2.1448e-23 -0.000290812 -4.24698e-15 -5.74642e-16 1.63088e-30 0.001415 
2813 1 0.0621842 0.0261988 0.00783694 0 0 0 2.62428e-18 1.33154e-17 -0.247055 2.32699e-20 1.18069e-19 -0.000290812 4.63399e-15 -9.13297e-16 -1.62649e-29 0.001415 
3551 1 0.0378271 0.027027 0.00842865 0 0 0 3.48934e-18 -2.0413e-17 -0.247055 -3.35195e-24 1.96092e-23 -0.000290812 5.78791e-17 9.89371e-18 -7.52489e-31 0.001415 
8776 1 0.0132433 0.0330907 0.00792791 0 0 0 -1.34721e-18 2.2673e-18 -0.247055 -1.68743e-20 2.83988e-20 -0.000290812 1.15896e-15 6.88645e-16 3.05611e-30 0.001415 
3969 1 -0.0266131 0.0377733 0.00733322 0 0 0 -3.33796e-16 1.04427e-15 -0.247055 -4.71045e-18 1.47365e-17 -0.000290812 -5.59297e-15 -1.78777e-15 3.55444e-29 0.001415 
7875 1 -0.0151895 0.0366812 0.00773415 0 0 0 7.34904e-18 8.69276e-18 -0.247055 -7.05967e-24 -8.35049e-24 -0.000290812 1.7357e-15 -1.4674e-15 7.82913e-30 0.001415 
485 1 0.0142511 0.04219 0.0088593 0 0 0 -8.07167e-18 6.84153e-18 -0.247055 7.75385e-24 -6.57215e-24 -0.000290812 -1.67019e-16 -1.97049e-16 -2.16221e-31 0.001415 
5121 1 -0.0078553 -0.064238 0.0102559 0 0 0 3.10341e-16 1.09239e-16 -0.247055 3.94934e-18 1.39016e-18 -0.000290812 -1.25069e-15 3.55313e-15 3.99331e-28 0.001415 
6406 1 -0.013834 -0.0547628 0.00913324 0 0 0 2.57023e-17 -7.49323e-18 -0.247055 1.41053e-19 -4.11225e-20 -0.000290812 -1.07849e-15 -3.69928e-15 1.57769e-29 0.001415 
4747 1 -0.048396 -0.0516837 0.00992201 0 0 0 -7.74629e-17 1.1326e-17 -0.247055 -4.37417e-19 6.39554e-20 -0.000290812 5.34381e-16 3.65485e-15 1.09149e-29 0.001415 
8904 1 0.00698378 -0.051284 0.0094414 0 0 0 0 0 -0.247055 0 0 -0.000290812 0 0 0 0.001415 
9218 1 -0.0344149 -0.0491301 0.0104124 0 0 0 -2.46804e-17 6.38844e-17 -0.247055 -2.36568e-19 6.12349e-19 -0.000290812 -1.46959e-14 -5.67743e-15 -1.65714e-28 0.001415 
8294 1 0.0417911 -0.0460756 0.0106736 0 0 0 0 0 -0.247055 0 0 -0.000290812 0 0 0 0.001415 
8781 1 0.0111727 -0.0390904 0.0103188 0 0 0 6.44924e-18 2.94211e-18 -0.247055 6.70242e-19 3.0576e-19 -0.000290812 -7.46242e-15 1.6358e-14 1.13948e-28 0.001415 
165 1 0.0235385 -0.0395933 0.00970778 0 0 0 -0.00268458 -0.0358326 -0.02795 1.53241e-09 2.04539e-08 -0.000291034 -10.1217 0.75832 -1.93307e-11 0.001415 
9787 1 -0.0202299 -0.023698 0.00953119 0 0 0 -1.22184e-17 -1.51931e-17 -0.247055 -8.92707e-20 -1.11005e-19 -0.000290812 -6.08249e-16 4.89155e-16 -9.64217e-29 0.001415 
1406 1 0.0148736 -0.0197 0.00910641 0 0 0 1.74864e-18 5.11568e-19 -0.247055 -1.67979e-24 -4.91425e-25 -0.000290812 -4.03609e-18 1.37962e-17 1.86114e-33 0.001415 
8588 1 -0.0403296 -0.0176897 0.00938103 0 0 0 1.3393e-17 -1.76873e-16 -0.247055 1.34732e-19 -1.77931e-18 -0.000290812 3.26373e-14 2.47134e-15 1.83605e-28 0.001415 
4389 1 -0.00210167 -0.0164576 0.0105155 0 0 0 4.08888e-17 -1.99328e-17 -0.247055 6.17002e-19 -3.00781e-19 -0.000290812 -2.38003e-16 -4.88223e-16 -6.73137e-29 0.001415 
8820 1 0.00980992 -0.0172644 0.00970882 0 0 0 0 0 -0.247055 0 0 -0.000290812 0 0 0 0.001415 
3529 1 0.0670132 -0.0166749 0.0100088 0 0 0 1.12682e-17 1.38396e-17 -0.247055 6.09837e-19 7.49e-19 -0.000290812 -3.45079e-16 2.80964e-16 -9.60197e-29 0.001415 
4473 1 -0.0215554 -0.0144106 0.00948549 0 0 0 0 0 -0.247055 0 0 -0.000290812 0 0 0 0.001415 
5437 1 0.0244153 -0.0132218 0.00936246 0 0 0 -8.6163e-16 1.63723e-15 -0.247055 -9.62322e-18 1.82855e-17 -0.000290812 -2.15912e-14 -1.13629e-14 -3.09065e-30 0.001415 
2099 1 -0.0146787 -0.0109948 0.00909518 0 0 0 -2.16819e-15 -3.93394e-16 -0.247055 -2.59566e-17 -4.70954e-18 -0.000290812 4.03724e-16 -2.22512e-15 3.10769e-28 0.001415 
4518 1 0.00403554 -0.00678852 0.0100674 0 0 0 -6.26942e-17 7.48443e-17 -0.247055 -5.86918e-19 7.00662e-19 -0.000290812 -2.63596e-14 -2.20804e-14 -1.21334e-27 0.001415 
9888 1 -0.0548111 -0.00420847 0.01011 0 0 0 -3.64307e-16 4.55014e-16 -0.247055 -4.9692e-18 6.20646e-18 -0.000290812 -8.9559e-16 -7.17055e-16 -8.07393e-29 0.001415 
2457 1 0.0227749 0.00368251 0.00912043 0 0 0 -8.24545e-19 5.18534e-19 -0.247055 -2.37667e-19 1.49462e-19 -0.000290812 -8.67116e-17 -1.37884e-16 3.48668e-30 0.001415 
1470 1 -0.0541433 0.00552442 0.0103576 0 0 0 7.64089e-17 7.36317e-17 -0.247055 7.04141e-19 6.78548e-19 -0.000290812 -2.95379e-14 3.0652e-14 3.13094e-29 0.001415 
7478 1 0.0063252 0.00556124 0.0102038 0 0 0 7.0902e-17 -7.1899e-17 -0.247055 6.2638e-19 -6.35188e-19 -0.000290812 -1.68444e-15 -1.66108e-15 -3.85212e-28 0.001415 
5545 1 -0.0302182 0.00727945 0.0104979 0 0 0 0 0 -0.247055 0 0 -0.000290812 0 0 0 0.001415 
6445 1 -0.0495051 0.00927345 0.00988188 0 0 0 4.35432e-17 -5.30458e-17 -0.247055 -1.07622e-19 1.31109e-19 -0.000290812 1.23855e-15 1.01668e-15 3.03872e-29 0.001415 
4431 1 -0.0620527 0.012605 0.00987641 0 0 0 -1.00177e-16 2.14001e-17 -0.247055 -8.89514e-19 1.9002e-19 -0.000290812 -6.33488e-15 -2.96545e-14 8.73631e-29 0.001415 
4367 1 0.0426483 0.0117219 0.0104035 0 0 0 -6.94281e-17 6.26292e-17 -0.247055 -8.45397e-19 7.62609e-19 -0.000290812 -6.42515e-15 -7.12265e-15 -4.89597e-28 0.001415 
4345 1 0.0473197 0.0133822 0.0108391 0 0 0 -3.62958e-17 -1.27573e-17 -0.247055 -8.36678e-19 -2.94076e-19 -0.000290812 3.01326e-15 -8.57305e-15 -5.61517e-28 0.001415 
5820 1 0.0722357 0.0116248 0.00967092 0 0 0 -5.52769e-16 5.31304e-16 -0.247055 -7.38074e-18 7.09412e-18 -0.000290812 1.77224e-15 1.84384e-15 2.95115e-29 0.001415 
9994 1 -0.0272948 0.0197145 0.0108031 0 0 0 -1.00981e-16 -9.64666e-17 -0.247055 -8.97497e-19 -8.57376e-19 -0.000290812 2.14011e-14 -2.24026e-14 -1.02136e-27 0.001415 
1280 1 -0.00826091 0.0224106 0.00899762 0 0 0 1.82236e-18 6.75056e-19 -0.247055 -1.75061e-24 -6.48476e-25 -0.000290812 -7.25587e-18 1.95877e-17 2.41316e-32 0.001415 
2812 1 0.0619348 0.0249338 0.0103561 0 0 0 1.95667e-17 9.92797e-17 -0.247055 2.31969e-19 1.17699e-18 -0.000290812 -1.04342e-14 2.05644e-15 1.88403e-28 0.001415 
4219 1 0.00713294 0.0263879 0.0101657 0 0 0 1.29104e-17 -9.54159e-17 -0.247055 2.05826e-19 -1.52119e-18 -0.000290812 2.5089e-14 3.39469e-15 1.97068e-28 0.001415 
3552 1 0.038076 0.0255707 0.0108424 0 0 0 -1.29335e-17 7.56622e-17 -0.247055 -1.32252e-19 7.73686e-19 -0.000290812 -1.73956e-14 -2.97355e-15 4.30827e-28 0.001415 
6216 1 -0.023401 0.0310553 0.0102351 0 0 0 -4.63816e-18 -2.15654e-17 -0.247055 -2.89766e-20 -1.34729e-19 -0.000290812 -2.9924e-15 6.43587e-16 1.51597e-29 0.001415 
8775 1 0.0134757 0.0326995 0.0107211 0 0 0 -1.54998e-17 2.60856e-17 -0.247055 -2.37527e-19 3.9975e-19 -0.000290812 9.48534e-16 5.6361e-16 -4.51589e-29 0.001415 
3968 1 -0.0261983 0.0364757 0.00981376 0 0 0 3.33796e-16 -1.04427e-15 -0.247055 4.71045e-18 -1.47365e-17 -0.000290812 -5.59297e-15 -1.78777e-15 3.55444e-29 0.001415 
7874 1 -0.0157052 0.0360712 0.0104491 0 0 0 2.2563e-17 2.66885e-17 -0.247055 5.68212e-19 6.72106e-19 -0.000290812 2.44492e-15 -2.06698e-15 -2.43906e-28 0.001415 
9745 1 -0.0323504 0.0411674 0.00912006 0 0 0 0 0 -0.247055 0 0 -0.000290812 0 0 0 0.001415 
4098 1 0.0474587 0.0419422 0.00906468 0 0 0 1.50853e-18 -5.12934e-19 -0.247055 5.98981e-20 -2.03667e-20 -0.000290812 3.30341e-16 9.71528e-16 2.35811e-30 0.001415 
4639 1 0.000319678 0.0462251 0.0094459 0 0 0 2.04168e-15 -1.09935e-15 -0.247055 2.2181e-17 -1.19435e-17 -0.000290812 1.35854e-14 2.52302e-14 -1.21799e-27 0.001415 
7349 1 0.0388392 0.0490157 0.0094139 0 0 0 -3.59908e-18 -6.08638e-17 -0.247055 -4.66052e-20 -7.88136e-19 -0.000290812 7.48678e-15 -4.42719e-16 -7.29412e-29 0.001415 
6048 1 -0.0014895 0.0671831 0.0107283 0 0 0 -1.22459e-16 -7.35882e-18 -0.247055 -1.46329e-18 -8.79321e-20 -0.000290812 1.42426e-15 -2.37013e-14 -2.01101e-28 0.001415 
3318 1 0.0108764 -0.0748018 0.011503 0 0 0 0 0 -0.247055 0 0 -0.000290812 0 0 0 0.001415 
6407 1 -0.0157638 -0.0542001 0.0111253 0 0 0 -2.57023e-17 7.49323e-18 -0.247055 -1.41053e-19 4.11225e-20 -0.000290812 -1.07849e-15 -3.69928e-15 1.57769e-29 0.001415 
4748 1 -0.0463698 -0.05198 0.0118754 0 0 0 -1.87684e-17 2.74415e-18 -0.247055 -4.18866e-19 6.12431e-20 -0.000290812 -6.80266e-15 -4.65262e-14 2.80537e-28 0.001415 
8903 1 0.00719176 -0.0530399 0.0116511 0 0 0 -1.13836e-17 9.61054e-17 -0.247055 -1.02745e-19 8.67423e-19 -0.000290812 -2.69696e-14 -3.19452e-15 3.55983e-28 0.001415 
9217 1 -0.0337766 -0.0507822 0.0126196 0 0 0 -3.79182e-16 9.81501e-16 -0.247055 -1.06171e-18 2.74821e-18 -0.000290812 4.44345e-15 1.71663e-15 1.67987e-27 0.001415 
8421 1 -0.0125515 -0.050364 0.0113285 0 0 0 1.6139e-17 -4.30944e-17 -0.247055 3.12736e-19 -8.35068e-19 -0.000290812 5.49962e-15 2.05963e-15 -1.36323e-27 0.001415 
5040 1 0.0412118 -0.051077 0.0109056 0 0 0 0 0 -0.247055 0 0 -0.000290812 0 0 0 0.001415 
164 1 0.0235012 -0.0400911 0.0125305 0 0 0 -0.0027548 -0.0367698 -0.00675102 1.52966e-09 2.04172e-08 -0.000291046 8.2157 -0.615521 -1.82186e-11 0.001415 
7141 1 -0.0440609 -0.0300013 0.0118661 0 0 0 -1.51342e-18 1.50221e-18 -0.247055 -4.34369e-19 4.31154e-19 -0.000290812 -2.62467e-16 -2.64424e-16 -8.82951e-30 0.001415 
6550 1 -0.00716818 -0.0295154 0.0114844 0 0 0 3.67355e-18 -5.95396e-19 -0.247055 4.8088e-19 -7.79393e-20 -0.000290812 -2.8727e-16 -1.77243e-15 -4.54996e-29 0.001415 
1113 1 0.057839 -0.0250229 0.0126964 0 0 0 1.89337e-15 9.71382e-16 -0.247055 8.46845e-18 4.3447e-18 -0.000290812 1.98304e-14 -3.86524e-14 3.2338e-28 0.001415 
9788 1 -0.0191042 -0.0222982 0.0117181 0 0 0 -5.88332e-17 -7.31572e-17 -0.247055 -6.44105e-19 -8.00924e-19 -0.000290812 2.38412e-14 -1.91731e-14 1.68294e-27 0.001415 
1405 1 0.0162037 -0.0193109 0.0115738 0 0 0 -1.39715e-16 -4.08738e-17 -0.247055 -1.46443e-18 -4.28423e-19 -0.000290812 8.02146e-15 -2.74189e-14 -8.16316e-28 0.001415 
8819 1 0.00974619 -0.0192248 0.0117489 0 0 0 4.64493e-18 1.42864e-16 -0.247055 3.80709e-20 1.17094e-18 -0.000290812 -3.11924e-14 1.01416e-15 -2.9524e-28 0.001415 
3530 1 0.0663652 -0.0174708 0.0126461 0 0 0 8.58702e-16 1.05466e-15 -0.247055 2.01983e-19 2.48075e-19 -0.000290812 7.26161e-15 -5.91241e-15 9.44137e-28 0.001415 
8587 1 -0.0404076 -0.0166605 0.0120161 0 0 0 6.79598e-17 -8.97501e-16 -0.247055 1.26118e-19 -1.66555e-18 -0.000290812 -1.70973e-14 -1.29463e-15 -2.02413e-29 0.001415 
4472 1 -0.0211077 -0.0159411 0.0118234 0 0 0 -4.72314e-17 1.6145e-16 -0.247055 -3.65863e-19 1.25063e-18 -0.000290812 -4.0699e-14 -1.19063e-14 -5.77347e-28 0.001415 
5436 1 0.0238697 -0.0121851 0.0119386 0 0 0 -9.66041e-18 1.83562e-17 -0.247055 -7.99448e-19 1.51907e-18 -0.000290812 2.27416e-14 1.19683e-14 1.83825e-28 0.001415 
2098 1 -0.0163785 -0.0113032 0.0113368 0 0 0 -8.73556e-17 -1.58497e-17 -0.247055 -2.67174e-18 -4.84758e-19 -0.000290812 3.72436e-16 -2.05268e-15 -2.98771e-28 0.001415 
4519 1 0.0050482 -0.00799743 0.0124172 0 0 0 -6.26183e-16 7.47536e-16 -0.247055 -1.9949e-18 2.38151e-18 -0.000290812 3.85245e-15 3.22705e-15 1.72627e-27 0.001415 
3527 1 0.053278 -0.000195356 0.0109769 0 0 0 2.85853e-17 1.30006e-17 -0.247055 1.55432e-19 7.06905e-20 -0.000290812 -2.1263e-15 4.67524e-15 -3.18943e-29 0.001415 
4852 1 -0.0576017 0.00160357 0.0117379 0 0 0 4.999e-17 8.20231e-17 -0.247055 4.47223e-19 7.33798e-19 -0.000290812 -1.64636e-14 1.0034e-14 8.44919e-28 0.001415 
9744 1 -0.0476714 0.00124731 0.0126585 0 0 0 3.11269e-17 3.54561e-17 -0.247055 2.95107e-19 3.36152e-19 -0.000290812 -1.65704e-14 1.45472e-14 1.11821e-27 0.001415 
2456 1 0.0231999 0.00341526 0.0119056 0 0 0 -3.77998e-16 2.37713e-16 -0.247055 -7.21509e-19 4.53738e-19 -0.000290812 5.91901e-15 9.41209e-15 -3.51881e-28 0.001415 
1469 1 -0.0554428 0.00427207 0.0125374 0 0 0 7.98862e-16 7.69827e-16 -0.247055 2.36119e-18 2.27537e-18 -0.000290812 1.89718e-14 -1.96873e-14 1.00346e-28 0.001415 
6444 1 -0.0485008 0.00805 0.0122278 0 0 0 -7.88169e-17 9.60175e-17 -0.247055 -7.17136e-19 8.7364e-19 -0.000290812 -2.23212e-14 -1.83226e-14 -1.51214e-27 0.001415 
5546 1 -0.0286421 0.00814112 0.0126848 0 0 0 -1.44631e-15 -7.90719e-16 -0.247055 -5.34801e-18 -2.92384e-18 -0.000290812 -3.50948e-14 6.41921e-14 -4.05878e-27 0.001415 
7897 1 0.0202104 0.0106666 0.0120807 0 0 0 2.51688e-17 1.1997e-16 -0.247055 2.15478e-19 1.0271e-18 -0.000290812 -3.89266e-14 8.16651e-15 7.39274e-30 0.001415 
4430 1 -0.0607358 0.0123237 0.0123655 0 0 0 -9.07114e-16 1.9378e-16 -0.247055 -2.41252e-18 5.1537e-19 -0.000290812 1.93012e-15 9.0352e-15 -1.19305e-28 0.001415 
5821 1 0.071151 0.0126674 0.0120679 0 0 0 -2.34912e-17 2.25789e-17 -0.247055 -7.85269e-19 7.54775e-19 -0.000290812 -1.61762e-15 -1.68298e-15 -1.40986e-28 0.001415 
1279 1 -0.00741294 0.0227247 0.0116793 0 0 0 -1.08571e-16 -4.0218e-17 -0.247055 -1.29902e-18 -4.81197e-19 -0.000290812 -8.29191e-17 2.23846e-16 -2.06442e-28 0.001415 
4218 1 0.00694369 0.0277865 0.0126186 0 0 0 1.68262e-16 -1.24357e-15 -0.247055 1.64024e-19 -1.21225e-18 -0.000290812 -4.94684e-14 -6.69338e-15 3.9182e-28 0.001415 
9955 1 0.0480973 0.0295036 0.0111378 0 0 0 5.80741e-19 3.22531e-18 -0.247055 1.6802e-19 9.33147e-19 -0.000290812 -3.45715e-16 6.22485e-17 -3.60409e-29 0.001415 
6215 1 -0.0229502 0.0331509 0.0120828 0 0 0 -1.23997e-17 -5.76533e-17 -0.247055 -1.29515e-19 -6.02189e-19 -0.000290812 3.81048e-14 -8.19535e-15 -2.78323e-28 0.001415 
3967 1 -0.0257836 0.0351781 0.0122943 0 0 0 -3.32502e-16 1.04022e-15 -0.247055 -1.08431e-18 3.39224e-18 -0.000290812 2.12573e-14 6.7948e-15 -1.4076e-27 0.001415 
4099 1 0.0465216 0.0422608 0.011716 0 0 0 3.27354e-17 -1.11308e-17 -0.247055 8.02746e-19 -2.72951e-19 -0.000290812 -7.89502e-16 -2.32192e-15 -5.15946e-28 0.001415 
9746 1 -0.0326219 0.0429159 0.0113287 0 0 0 1.68544e-17 -1.08548e-16 -0.247055 1.48814e-19 -9.58414e-19 -0.000290812 2.94145e-14 4.56721e-15 -6.14745e-28 0.001415 
486 1 0.0131757 0.0431015 0.0113132 0 0 0 1.19718e-16 -1.01472e-16 -0.247055 9.77344e-19 -8.28396e-19 -0.000290812 2.54813e-14 3.00629e-14 -4.03866e-28 0.001415 
4638 1 0.00148191 0.0455993 0.0119492 0 0 0 3.31214e-17 -1.78344e-17 -0.247055 1.78756e-18 -9.62525e-19 -0.000290812 -7.66753e-15 -1.42398e-14 1.04819e-27 0.001415 
7348 1 0.0388741 0.0496065 0.0121813 0 0 0 -4.02416e-17 -6.80522e-16 -0.247055 -1.03402e-19 -1.74863e-18 -0.000290812 3.43836e-15 -2.03322e-16 3.99208e-29 0.001415 
8316 1 0.0241447 0.055508 0.0118808 0 0 0 0 0 -0.247055 0 0 -0.000290812 0 0 0 0.001415 
4831 1 0.0293284 0.0560787 0.0123501 0 0 0 1.0588e-15 -5.88578e-16 -0.247055 3.75232e-18 -2.08588e-18 -0.000290812 -2.53708e-14 -4.56398e-14 1.75781e-28 0.001415 
6909 1 0.00964204 0.0590336 0.0123842 0 0 0 2.39403e-16 -1.44246e-16 -0.247055 1.69801e-18 -1.02309e-18 -0.000290812 4.21352e-14 6.99308e-14 -9.88162e-28 0.001415 
8757 1 0.00829498 0.0765507 0.0127391 0 0 0 0 0 -0.247055 0 0 -0.000290812 0 0 0 0.001415 
3317 1 0.00879117 -0.0741345 0.0132961 0 0 0 1.30008e-15 -4.16043e-16 -0.247055 1.40174e-18 -4.48575e-19 -0.000290812 -2.60973e-14 -8.15505e-14 -1.98935e-27 0.001415 
4537 1 0.0348065 -0.0668743 0.0132741 0 0 0 4.56655e-16 -8.89306e-16 -0.247055 -4.38675e-22 8.5429e-22 -0.000290812 9.44159e-15 4.84822e-15 -4.63234e-29 0.001415 
5120 1 -0.00732864 -0.0640527 0.0130303 0 0 0 -5.12602e-16 -1.80434e-16 -0.247055 1.31856e-18 4.64129e-19 -0.000290812 2.49736e-15 -7.09485e-15 5.55879e-28 0.001415 
8902 1 0.00739974 -0.0547957 0.0138608 0 0 0 -1.68672e-16 1.424e-15 -0.247055 1.02918e-19 -8.68883e-19 -0.000290812 1.0031e-14 1.18816e-15 2.26452e-28 0.001415 
4749 1 -0.0443437 -0.0522762 0.0138288 0 0 0 -1.08869e-15 1.59178e-16 -0.247055 8.57422e-19 -1.25365e-19 -0.000290812 1.83598e-15 1.2557e-14 5.48473e-29 0.001415 
6408 1 -0.0176936 -0.0536375 0.0131173 0 0 0 3.08184e-15 -8.98477e-16 -0.247055 1.91775e-17 -5.59099e-18 -0.000290812 -3.67859e-14 -1.26178e-13 -4.77834e-27 0.001415 
5039 1 0.0393096 -0.0515993 0.0129348 0 0 0 1.87029e-15 5.13544e-16 -0.247055 8.02356e-18 2.20311e-18 -0.000290812 1.86007e-14 -6.77423e-14 2.76653e-27 0.001415 
8420 1 -0.0130316 -0.0490822 0.0138055 0 0 0 4.64931e-16 -1.24146e-15 -0.247055 -3.13198e-19 8.36302e-19 -0.000290812 -9.97861e-15 -3.73703e-15 7.93756e-28 0.001415 
8293 1 0.0410995 -0.0444363 0.0128744 0 0 0 7.22425e-16 -1.71228e-15 -0.247055 2.04717e-18 -4.85218e-18 -0.000290812 -1.16675e-13 -4.9226e-14 -7.70867e-28 0.001415 
8782 1 0.00995582 -0.0396456 0.0128127 0 0 0 1.05003e-15 4.79019e-16 -0.247055 -9.5162e-19 -4.34123e-19 -0.000290812 1.1268e-14 -2.47001e-14 -9.7579e-28 0.001415 
1765 1 -0.00582286 -0.0341936 0.0135676 0 0 0 1.27229e-15 -3.98149e-16 -0.247055 -1.2222e-21 3.82472e-22 -0.000290812 -1.59982e-14 -5.11226e-14 4.64324e-28 0.001415 
7142 1 -0.0430179 -0.0310366 0.0142847 0 0 0 -9.6581e-16 9.58662e-16 -0.247055 4.35299e-19 -4.32077e-19 -0.000290812 2.58311e-14 2.60237e-14 -1.70725e-28 0.001415 
6549 1 -0.00774795 -0.0294214 0.0142528 0 0 0 6.46692e-16 -1.04814e-16 -0.247055 -5.32287e-19 8.62712e-20 -0.000290812 8.24338e-16 5.0861e-15 4.80562e-29 0.001415 
2898 1 -0.0015393 -0.0260351 0.0138398 0 0 0 8.47837e-16 -1.67371e-16 -0.247055 -8.14454e-22 1.60781e-22 -0.000290812 -5.03172e-16 -2.54887e-15 -8.95304e-29 0.001415 
2604 1 -0.0264828 -0.0239558 0.0135643 0 0 0 2.05658e-15 -8.95424e-17 -0.247055 1.10517e-17 -4.81187e-19 -0.000290812 -4.26057e-15 -9.78554e-14 -8.49877e-29 0.001415 
7959 1 -0.0480224 -0.0227988 0.0142463 0 0 0 -1.34105e-15 8.36446e-16 -0.247055 1.28824e-21 -8.03512e-22 -0.000290812 2.46516e-14 3.95231e-14 2.38018e-27 0.001415 
8818 1 0.00968245 -0.0211851 0.013789 0 0 0 4.31092e-17 1.3259e-15 -0.247055 -3.81168e-20 -1.17235e-18 -0.000290812 3.72559e-15 -1.2113e-16 -1.79476e-28 0.001415 
9789 1 -0.0179785 -0.0208985 0.0139049 0 0 0 -9.72217e-16 -1.20892e-15 -0.247055 7.34378e-19 9.13175e-19 -0.000290812 -1.8455e-14 1.48415e-14 6.91505e-28 0.001415 
4471 1 -0.0206599 -0.0174716 0.0141614 0 0 0 -3.20218e-16 1.0946e-15 -0.247055 3.66216e-19 -1.25183e-18 -0.000290812 -5.86442e-15 -1.7156e-15 -2.69898e-28 0.001415 
1404 1 0.0175339 -0.0189217 0.0140412 0 0 0 -1.14166e-15 -3.33993e-16 -0.247055 1.46566e-18 4.28783e-19 -0.000290812 3.55787e-17 -1.21615e-16 4.10604e-28 0.001415 
8586 1 -0.0404855 -0.0156313 0.0146512 0 0 0 -6.68538e-17 8.82894e-16 -0.247055 -2.60863e-19 3.44505e-18 -0.000290812 -5.02737e-14 -3.80678e-15 -1.97217e-28 0.001415 
4388 1 -0.00265555 -0.0161876 0.0132776 0 0 0 5.43711e-16 -2.65053e-16 -0.247055 -6.17564e-19 3.01055e-19 -0.000290812 1.92642e-15 3.95173e-15 -1.39376e-29 0.001415 
2097 1 -0.0180782 -0.0116116 0.0135783 0 0 0 1.47474e-15 2.67575e-16 -0.247055 -1.41667e-21 -2.5704e-22 -0.000290812 8.10366e-15 -4.46632e-14 -1.64086e-27 0.001415 
5435 1 0.0233242 -0.0111485 0.0145148 0 0 0 5.23218e-16 -9.94192e-16 -0.247055 -6.12163e-19 1.1632e-18 -0.000290812 -1.91961e-15 -1.01024e-15 -3.89773e-28 0.001415 
9887 1 -0.0551901 -0.00373509 0.0128743 0 0 0 3.6882e-16 -4.6065e-16 -0.247055 -1.02705e-18 1.28277e-18 -0.000290812 6.48081e-15 5.18887e-15 -1.04979e-28 0.001415 
4853 1 -0.0586257 -7.65915e-05 0.0137719 0 0 0 7.38196e-16 1.21122e-15 -0.247055 -4.4798e-19 -7.35041e-19 -0.000290812 6.70232e-15 -4.08481e-15 -1.23266e-27 0.001415 
9743 1 -0.0492029 -0.00049722 0.0142771 0 0 0 6.47275e-16 7.373e-16 -0.247055 -2.95759e-19 -3.36894e-19 -0.000290812 1.87464e-14 -1.64574e-14 2.12404e-27 0.001415 
3403 1 0.0399954 0.00144601 0.0127935 0 0 0 -1.64978e-15 7.80709e-17 -0.247055 -7.65764e-18 3.62376e-19 -0.000290812 3.21777e-15 6.79972e-14 -5.36404e-28 0.001415 
3526 1 0.0549212 0.000551996 0.0131564 0 0 0 -1.47331e-15 -6.7006e-16 -0.247055 1.4153e-21 6.43677e-22 -0.000290812 -2.19828e-14 4.83351e-14 -1.36595e-27 0.001415 
3843 1 -0.0432547 0.00201405 0.0133789 0 0 0 1.21462e-15 8.27595e-16 -0.247055 -1.16679e-21 -7.95009e-22 -0.000290812 1.69869e-14 -2.49308e-14 2.01316e-27 0.001415 
2455 1 0.0236249 0.00314802 0.0146907 0 0 0 2.31347e-16 -1.45488e-16 -0.247055 9.59318e-19 -6.03289e-19 -0.000290812 6.64934e-15 1.05734e-14 -3.10157e-28 0.001415 
6238 1 0.0476834 0.00358837 0.0129144 0 0 0 2.0843e-15 -1.34107e-15 -0.247055 8.08054e-18 -5.19915e-18 -0.000290812 -5.70252e-14 -8.86288e-14 8.42453e-28 0.001415 
7479 1 0.00708078 0.00479504 0.0128212 0 0 0 -7.265e-16 7.36716e-16 -0.247055 5.85297e-19 -5.93527e-19 -0.000290812 2.76661e-15 2.72825e-15 3.46143e-28 0.001415 
6443 1 -0.0474965 0.00682656 0.0145738 0 0 0 -8.13296e-16 9.90785e-16 -0.247055 8.14864e-19 -9.92696e-19 -0.000290812 1.12071e-14 9.19949e-15 -2.03276e-28 0.001415 
7898 1 0.0197791 0.00861083 0.0139772 0 0 0 2.79745e-16 1.33344e-15 -0.247055 -2.15771e-19 -1.0285e-18 -0.000290812 1.43153e-14 -3.00325e-15 -4.5446e-28 0.001415 
4366 1 0.0434972 0.010956 0.0129923 0 0 0 -7.98244e-16 7.20074e-16 -0.247055 8.4623e-19 -7.63361e-19 -0.000290812 2.96608e-15 3.28808e-15 -4.89476e-28 0.001415 
1176 1 0.023371 0.01534 0.0139787 0 0 0 1.79908e-17 1.52444e-15 -0.247055 -1.72824e-23 -1.46441e-21 -0.000290812 2.40535e-14 -2.8387e-16 -5.2057e-30 0.001415 
4344 1 0.0486622 0.0138541 0.0132853 0 0 0 -1.28876e-15 -4.52975e-16 -0.247055 9.64113e-19 3.38867e-19 -0.000290812 -3.29119e-15 9.36381e-15 6.8983e-28 0.001415 
5822 1 0.0700663 0.01371 0.0144648 0 0 0 1.10306e-15 -1.06023e-15 -0.247055 -1.05963e-21 1.01848e-21 -0.000290812 -2.64087e-14 -2.74757e-14 9.19601e-28 0.001415 
9808 1 -0.0411335 0.0170646 0.01451 0 0 0 1.07637e-15 -8.87733e-16 -0.247055 -1.03399e-21 8.52779e-22 -0.000290812 -3.42595e-14 -4.15395e-14 2.99043e-27 0.001415 
5629 1 -0.00809486 0.0186934 0.0131586 0 0 0 1.90965e-15 3.34066e-17 -0.247055 9.86049e-18 1.72496e-19 -0.000290812 1.83545e-15 -1.04921e-13 4.4429e-28 0.001415 
9993 1 -0.0262716 0.020692 0.013254 0 0 0 -7.92046e-16 -7.56639e-16 -0.247055 8.98355e-19 8.58196e-19 -0.000290812 -8.26023e-15 8.64677e-15 1.67428e-28 0.001415 
1278 1 -0.00656497 0.0230388 0.0143609 0 0 0 -8.18495e-16 -3.03195e-16 -0.247055 1.29991e-18 4.81527e-19 -0.000290812 5.59636e-15 -1.51078e-14 -1.1462e-30 0.001415 
3553 1 0.038325 0.0241144 0.0132562 0 0 0 -1.92679e-16 1.12719e-15 -0.247055 1.32449e-19 -7.74842e-19 -0.000290812 1.2652e-14 2.1627e-15 7.01283e-28 0.001415 
2811 1 0.0616855 0.0236687 0.0128753 0 0 0 2.40478e-16 1.22017e-15 -0.247055 -2.55491e-19 -1.29634e-18 -0.000290812 -9.88577e-16 1.94835e-16 -1.7432e-28 0.001415 
9956 1 0.047731 0.0274693 0.0130708 0 0 0 3.75647e-16 2.08626e-15 -0.247055 1.5837e-18 8.79552e-18 -0.000290812 5.83042e-14 -1.04981e-14 5.10357e-28 0.001415 
6007 1 0.0347873 0.0296881 0.0128406 0 0 0 3.83123e-16 4.2928e-16 -0.247055 -3.68038e-22 -4.12378e-22 -0.000290812 -2.63589e-15 2.35248e-15 1.33563e-29 0.001415 
8774 1 0.0137081 0.0323084 0.0135143 0 0 0 -2.37222e-16 3.99236e-16 -0.247055 2.54646e-19 -4.28559e-19 -0.000290812 -5.05193e-15 -3.00181e-15 -8.78053e-29 0.001415 
6214 1 -0.0224995 0.0352466 0.0139305 0 0 0 -2.79239e-16 -1.29834e-15 -0.247055 1.58776e-19 7.38241e-19 -0.000290812 -1.9212e-14 4.132e-15 1.10041e-27 0.001415 