ITEM: TIMESTEP
245000
ITEM: NUMBER OF ATOMS
10248
ITEM: BOX BOUNDS ff ff ff
-0.2 0.2
-0.2 0.2
-0.01 0.5
ITEM: ATOMS id type x y z ix iy iz vx vy vz fx fy fz omegax omegay omegaz radius 
168 1 0.0237256 -0.0370963 0.00142227 0 0 0 0.0326135 0.43531 -0.00498394 -4.32836e-08 -5.7773e-07 -0.000291043 -307.724 23.0547 2.92756e-12 0.001415 
5124 1 -0.00943529 -0.0647942 0.00190801 0 0 0 -7.63687e-17 -2.68816e-17 -0.248035 -3.18832e-18 -1.12228e-18 -0.000290811 6.21324e-16 -1.76514e-15 -2.1764e-30 0.001415 
9891 1 -0.0536741 -0.00562861 0.00179248 0 0 0 4.78034e-17 -5.97057e-17 -0.248035 2.27183e-18 -2.83748e-18 -0.000290811 2.14727e-15 1.71922e-15 -6.7896e-30 0.001415 
8778 1 0.0127785 0.033873 0.00231679 0 0 0 -3.22828e-17 5.43308e-17 -0.248035 -1.13314e-18 1.90703e-18 -0.000290811 -1.14937e-15 -6.82944e-16 2.31133e-30 0.001415 
5123 1 -0.00890863 -0.0646088 0.00468238 0 0 0 7.54324e-17 2.6552e-17 -0.248035 3.18832e-18 1.12228e-18 -0.000290811 6.19875e-16 -1.76102e-15 -2.1736e-30 0.001415 
167 1 0.0236667 -0.037882 0.00421314 0 0 0 0.0225712 0.30127 0.00222113 -2.40867e-08 -3.21498e-07 -0.000291052 400.646 -30.0165 1.61868e-11 0.001415 
5439 1 0.0255064 -0.015295 0.00418535 0 0 0 6.69692e-19 -1.27251e-18 -0.248035 -6.44593e-25 1.22482e-24 -0.000290811 -5.23833e-18 -2.7568e-18 2.22066e-33 0.001415 
9890 1 -0.0540531 -0.00515523 0.00455674 0 0 0 -4.68915e-17 5.85667e-17 -0.248035 -2.27183e-18 2.83748e-18 -0.000290811 2.14127e-15 1.71441e-15 -6.78992e-30 0.001415 
5818 1 0.0744051 0.00953964 0.00485228 0 0 0 2.36842e-19 -2.27645e-19 -0.248035 -2.27966e-25 2.19113e-25 -0.000290811 -2.53148e-19 -2.63376e-19 -1.71759e-34 0.001415 
4096 1 0.0493328 0.0413049 0.00373736 0 0 0 5.67977e-16 -1.93125e-16 -0.248035 2.2844e-17 -7.76747e-18 -0.000290811 -2.15616e-15 -6.34123e-15 -3.01643e-30 0.001415 
4641 1 -0.00200478 0.0474767 0.00441455 0 0 0 -2.10625e-18 1.13412e-18 -0.248035 2.02731e-24 -1.09162e-24 -0.000290811 5.34786e-18 9.93184e-18 -2.46499e-33 0.001415 
166 1 0.0235565 -0.0393536 0.00683034 0 0 0 -0.0114049 -0.152227 -0.0736095 9.24441e-09 1.2339e-07 -0.00029099 -76.3107 5.71721 -1.31795e-11 0.001415 
8779 1 0.0136066 -0.0379801 0.00530614 0 0 0 3.65912e-19 1.66927e-19 -0.248035 -3.52198e-25 -1.60671e-25 -0.000290811 1.63534e-17 -3.58474e-17 1.79988e-31 0.001415 
6552 1 -0.00600865 -0.0297033 0.0059229 0 0 0 2.04947e-18 -3.32172e-19 -0.248035 -1.97266e-24 3.19722e-25 -0.000290811 6.3813e-18 3.93721e-17 -8.49598e-32 0.001415 
1407 1 0.0135434 -0.0200891 0.00661424 0 0 0 -1.74863e-18 -5.11566e-19 -0.248035 1.6831e-24 4.92394e-25 -0.000290811 -4.03607e-18 1.37961e-17 1.86113e-33 0.001415 
8589 1 -0.0402517 -0.0187189 0.0067212 0 0 0 2.10718e-19 -2.78282e-18 -0.248035 -2.02821e-25 2.67853e-24 -0.000290811 -2.89136e-16 -2.18937e-17 -5.2788e-30 0.001415 
5438 1 0.0249608 -0.0142584 0.00676153 0 0 0 9.51715e-16 -1.8084e-15 -0.248035 7.19927e-18 -1.36797e-17 -0.000290811 -4.00604e-14 -2.10827e-14 -1.5121e-28 0.001415 
2100 1 -0.012979 -0.0106864 0.00682885 0 0 0 2.33212e-15 4.23137e-16 -0.248035 1.92447e-17 3.49174e-18 -0.000290811 -1.07725e-16 5.93723e-16 6.00786e-28 0.001415 
4516 1 0.00201022 -0.00437069 0.00534283 0 0 0 -1.79077e-18 2.13782e-18 -0.248035 1.72366e-24 -2.0577e-24 -0.000290811 1.56444e-17 1.31047e-17 -1.84132e-31 0.001415 
6447 1 -0.0515136 0.0117203 0.00516521 0 0 0 -1.27924e-18 1.55841e-18 -0.248035 1.2313e-24 -1.50001e-24 -0.000290811 3.38222e-18 2.77633e-18 -3.23408e-32 0.001415 
4347 1 0.0446345 0.0124385 0.00592199 0 0 0 -1.91535e-18 -6.73208e-19 -0.248035 1.84357e-24 6.47977e-25 -0.000290811 2.6366e-17 -7.50142e-17 -5.77321e-31 0.001415 
9996 1 -0.0293411 0.0177597 0.00587665 0 0 0 -4.59978e-18 -4.39415e-18 -0.248035 4.42738e-24 4.22947e-24 -0.000290811 -8.26016e-17 8.6467e-17 2.86351e-31 0.001415 
1281 1 -0.00910888 0.0220965 0.00629123 0 0 0 -1.82235e-18 -6.75054e-19 -0.248035 1.75406e-24 6.49754e-25 -0.000290811 -7.25583e-18 1.95876e-17 2.41315e-32 0.001415 
4221 1 0.00751144 0.0235905 0.00523508 0 0 0 6.82591e-20 -5.04478e-19 -0.248035 -6.57008e-26 4.85571e-25 -0.000290811 2.47608e-17 3.35029e-18 -8.09372e-32 0.001415 
3550 1 0.0375782 0.0284832 0.00599014 0 0 0 -3.48933e-18 2.04129e-17 -0.248035 3.35855e-24 -1.96479e-23 -0.000290811 5.78788e-17 9.89365e-18 -7.52485e-31 0.001415 
2814 1 0.0624335 0.0274639 0.005293 0 0 0 3.78026e-19 1.91807e-18 -0.248035 -3.63858e-25 -1.84619e-24 -0.000290811 -7.7487e-17 1.52716e-17 2.75192e-31 0.001415 
8777 1 0.0130109 0.0334818 0.00510997 0 0 0 3.17178e-17 -5.33798e-17 -0.248035 1.13314e-18 -1.90703e-18 -0.000290811 -1.16934e-15 -6.94811e-16 2.23921e-30 0.001415 
484 1 0.0153265 0.0412785 0.00638065 0 0 0 8.07164e-18 -6.84151e-18 -0.248035 -7.76913e-24 6.5851e-24 -0.000290811 -1.67018e-16 -1.97048e-16 -2.1622e-31 0.001415 
4097 1 0.0483957 0.0416236 0.00638865 0 0 0 -5.62683e-16 1.91325e-16 -0.248035 -2.2844e-17 7.76747e-18 -0.000290811 -1.97995e-15 -5.82301e-15 -7.87754e-30 0.001415 
4640 1 -0.000842548 0.0468509 0.00691785 0 0 0 -2.21325e-15 1.19174e-15 -0.248035 -1.67501e-17 9.01918e-18 -0.000290811 1.44658e-14 2.68654e-14 -1.97161e-27 0.001415 
7350 1 0.0388042 0.0484249 0.00662172 0 0 0 -1.64641e-20 -2.78424e-19 -0.248035 1.58471e-26 2.67989e-25 -0.000290811 -3.95005e-17 2.3358e-18 8.79194e-32 0.001415 
5122 1 -0.00838197 -0.0644234 0.00745676 0 0 0 -3.85407e-16 -1.35662e-16 -0.248035 -2.46923e-18 -8.69162e-19 -0.000290811 -8.89367e-16 2.52663e-15 -1.20379e-28 0.001415 
9219 1 -0.0350531 -0.0474779 0.00818037 0 0 0 0 0 -0.248035 0 0 -0.000290811 0 0 0 0.001415 
8295 1 0.0424827 -0.0477148 0.00844809 0 0 0 0 0 -0.248035 0 0 -0.000290811 0 0 0 0.001415 
8780 1 0.0123897 -0.0385353 0.00780009 0 0 0 4.71149e-17 2.14935e-17 -0.248035 -4.53491e-23 -2.0688e-23 -0.000290811 -3.70961e-15 8.13165e-15 -1.54917e-29 0.001415 
6551 1 -0.00658842 -0.0296093 0.00869128 0 0 0 6.00508e-18 -9.73282e-19 -0.248035 5.17767e-20 -8.39179e-21 -0.000290811 -1.97784e-16 -1.22031e-15 1.33793e-30 0.001415 
9889 1 -0.0544321 -0.00468185 0.00732101 0 0 0 4.2016e-16 -5.24773e-16 -0.248035 3.55805e-18 -4.44394e-18 -0.000290811 -8.96317e-16 -7.17637e-16 -1.51124e-29 0.001415 
4517 1 0.00302288 -0.0055796 0.00769271 0 0 0 4.7165e-19 -5.63055e-19 -0.248035 -4.53973e-25 5.41953e-25 -0.000290811 5.92953e-17 4.96695e-17 -1.96525e-31 0.001415 
3528 1 0.0516347 -0.000942708 0.0087727 0 0 0 -2.91083e-17 -1.32384e-17 -0.248035 -1.5488e-19 -7.04392e-20 -0.000290811 -2.16304e-15 4.75603e-15 -3.34593e-29 0.001415 
7477 1 0.00556963 0.00632744 0.00756161 0 0 0 -1.03562e-16 1.05018e-16 -0.248035 7.00097e-20 -7.09941e-20 -0.000290811 -9.88865e-16 -9.75152e-16 3.09821e-29 0.001415 
6446 1 -0.0505093 0.0104969 0.00751117 0 0 0 -5.10706e-17 6.2216e-17 -0.248035 4.91566e-23 -5.98842e-23 -0.000290811 -1.13341e-15 -9.30367e-16 -3.32558e-30 0.001415 
5819 1 0.0733204 0.0105822 0.00724922 0 0 0 5.94515e-16 -5.71428e-16 -0.248035 3.77509e-18 -3.62849e-18 -0.000290811 3.63859e-15 3.7856e-15 2.62775e-28 0.001415 
4368 1 0.0417993 0.0124877 0.00779002 0 0 0 -4.34231e-20 3.91708e-20 -0.248035 4.17956e-26 -3.77027e-26 -0.000290811 1.34122e-17 1.48682e-17 2.77917e-31 0.001415 
4346 1 0.0459771 0.0129104 0.00836816 0 0 0 -1.74449e-17 -6.13153e-18 -0.248035 -1.27126e-19 -4.46822e-20 -0.000290811 -6.34381e-16 1.80488e-15 9.15145e-30 0.001415 
9995 1 -0.0283179 0.0187371 0.0083275 0 0 0 4.59978e-18 4.39415e-18 -0.248035 -4.42738e-24 -4.22947e-24 -0.000290811 -8.26016e-17 8.6467e-17 2.86351e-31 0.001415 
4220 1 0.00732219 0.0249892 0.00768799 0 0 0 3.02099e-18 -2.2327e-17 -0.248035 -2.90776e-24 2.14903e-23 -0.000290811 -4.24695e-15 -5.74639e-16 1.63087e-30 0.001415 
2813 1 0.0621842 0.0261988 0.00781219 0 0 0 2.70522e-18 1.37261e-17 -0.248035 1.2734e-19 6.46114e-19 -0.000290811 4.82792e-15 -9.51518e-16 -1.94164e-29 0.001415 
3551 1 0.0378271 0.027027 0.0084039 0 0 0 3.48933e-18 -2.04129e-17 -0.248035 -3.35855e-24 1.96479e-23 -0.000290811 5.78788e-17 9.89365e-18 -7.52485e-31 0.001415 
8776 1 0.0132433 0.0330907 0.00790316 0 0 0 -1.40477e-18 2.36418e-18 -0.248035 -1.7284e-20 2.90884e-20 -0.000290811 1.19151e-15 7.07986e-16 3.52521e-30 0.001415 
3969 1 -0.0266131 0.0377733 0.00730847 0 0 0 -3.45056e-16 1.0795e-15 -0.248035 -2.56358e-18 8.02007e-18 -0.000290811 -5.21079e-15 -1.66561e-15 6.05577e-29 0.001415 
7875 1 -0.0151895 0.0366812 0.0077094 0 0 0 7.34901e-18 8.69273e-18 -0.248035 -7.07358e-24 -8.36694e-24 -0.000290811 1.7357e-15 -1.46739e-15 7.82909e-30 0.001415 
485 1 0.0142511 0.04219 0.00883454 0 0 0 -8.07164e-18 6.84151e-18 -0.248035 7.76913e-24 -6.5851e-24 -0.000290811 -1.67018e-16 -1.97048e-16 -2.1622e-31 0.001415 
5121 1 -0.0078553 -0.064238 0.0102311 0 0 0 3.17495e-16 1.11757e-16 -0.248035 9.4105e-19 3.31247e-19 -0.000290811 -1.19228e-15 3.38718e-15 4.23981e-28 0.001415 
6406 1 -0.013834 -0.0547628 0.00910849 0 0 0 2.61768e-17 -7.63156e-18 -0.248035 1.40492e-19 -4.0959e-20 -0.000290811 -1.10515e-15 -3.79075e-15 1.45654e-29 0.001415 
4747 1 -0.048396 -0.0516837 0.00989726 0 0 0 -7.89352e-17 1.15412e-17 -0.248035 -4.36191e-19 6.37761e-20 -0.000290811 5.63761e-16 3.85579e-15 1.14919e-29 0.001415 
8904 1 0.00698378 -0.051284 0.00941664 0 0 0 0 0 -0.248035 0 0 -0.000290811 0 0 0 0.001415 
9218 1 -0.0344149 -0.0491301 0.0103876 0 0 0 -2.54811e-17 6.5957e-17 -0.248035 -2.38234e-19 6.16661e-19 -0.000290811 -1.50178e-14 -5.80182e-15 -1.78868e-28 0.001415 
8294 1 0.0417911 -0.0460756 0.0106489 0 0 0 0 0 -0.248035 0 0 -0.000290811 0 0 0 0.001415 
8781 1 0.0111727 -0.0390904 0.010294 0 0 0 9.17082e-18 4.18367e-18 -0.248035 9.46932e-19 4.31985e-19 -0.000290811 -7.71794e-15 1.69181e-14 1.36533e-28 0.001415 
165 1 0.0235383 -0.0395969 0.00970493 0 0 0 -0.00268458 -0.0358325 -0.0289309 1.53557e-09 2.0496e-08 -0.000291033 -10.1217 0.758316 -1.93306e-11 0.001415 
9787 1 -0.0202299 -0.023698 0.00950644 0 0 0 -1.25203e-17 -1.55685e-17 -0.248035 -8.98718e-20 -1.11753e-19 -0.000290811 -6.68313e-16 5.37459e-16 -1.02302e-28 0.001415 
1406 1 0.0148736 -0.0197 0.00908166 0 0 0 1.74863e-18 5.11566e-19 -0.248035 -1.6831e-24 -4.92394e-25 -0.000290811 -4.03607e-18 1.37961e-17 1.86113e-33 0.001415 
8588 1 -0.0403296 -0.0176897 0.00935627 0 0 0 1.38472e-17 -1.82871e-16 -0.248035 1.34755e-19 -1.77962e-18 -0.000290811 3.37201e-14 2.55332e-15 1.82024e-28 0.001415 
4389 1 -0.00210167 -0.0164576 0.0104907 0 0 0 4.29627e-17 -2.09438e-17 -0.248035 6.13593e-19 -2.9912e-19 -0.000290811 -2.81287e-16 -5.77012e-16 -6.68568e-29 0.001415 
8820 1 0.00980992 -0.0172644 0.00968406 0 0 0 0 0 -0.248035 0 0 -0.000290811 0 0 0 0.001415 
3529 1 0.0670132 -0.0166749 0.00998405 0 0 0 1.3322e-17 1.6362e-17 -0.248035 6.08724e-19 7.47634e-19 -0.000290811 -3.39979e-16 2.76812e-16 -1.0355e-28 0.001415 
4473 1 -0.0215554 -0.0144106 0.00946074 0 0 0 0 0 -0.248035 0 0 -0.000290811 0 0 0 0.001415 
5437 1 0.0244153 -0.0132218 0.00933771 0 0 0 -8.85797e-16 1.68315e-15 -0.248035 -5.59104e-18 1.06238e-17 -0.000290811 -2.22869e-14 -1.1729e-14 5.43841e-29 0.001415 
2099 1 -0.0146787 -0.0109948 0.00907043 0 0 0 -2.23537e-15 -4.05584e-16 -0.248035 -1.61793e-17 -2.93556e-18 -0.000290811 1.88436e-16 -1.03856e-15 2.75488e-28 0.001415 
4518 1 0.00403554 -0.00678852 0.0100426 0 0 0 -6.46795e-17 7.72143e-17 -0.248035 -5.90362e-19 7.04773e-19 -0.000290811 -2.69739e-14 -2.2595e-14 -1.3013e-27 0.001415 
9888 1 -0.0548111 -0.00420847 0.0100853 0 0 0 -3.75709e-16 4.69255e-16 -0.248035 -2.43278e-18 3.0385e-18 -0.000290811 -4.12771e-16 -3.30485e-16 -1.10829e-28 0.001415 
2457 1 0.0227749 0.00368251 0.00909568 0 0 0 -1.62853e-18 1.02414e-18 -0.248035 -2.39126e-19 1.5038e-19 -0.000290811 -1.60838e-16 -2.55757e-16 7.00034e-30 0.001415 
1470 1 -0.0541433 0.00552442 0.0103328 0 0 0 7.87908e-17 7.5927e-17 -0.248035 7.08355e-19 6.82609e-19 -0.000290811 -3.03014e-14 3.14443e-14 7.85864e-29 0.001415 
7478 1 0.0063252 0.00556124 0.010179 0 0 0 7.05315e-17 -7.15233e-17 -0.248035 -6.53146e-19 6.6233e-19 -0.000290811 -1.84734e-15 -1.82172e-15 -4.14799e-28 0.001415 
5545 1 -0.0302182 0.00727945 0.0104732 0 0 0 0 0 -0.248035 0 0 -0.000290811 0 0 0 0.001415 
6445 1 -0.0495051 0.00927345 0.00985713 0 0 0 4.32063e-17 -5.26354e-17 -0.248035 -9.73641e-20 1.18612e-19 -0.000290811 1.44188e-15 1.18359e-15 3.16655e-29 0.001415 
4431 1 -0.0620527 0.012605 0.00985165 0 0 0 -1.03184e-16 2.20425e-17 -0.248035 -8.93914e-19 1.9096e-19 -0.000290811 -6.50152e-15 -3.04346e-14 8.6628e-29 0.001415 
4367 1 0.0426483 0.0117219 0.0103788 0 0 0 -7.22268e-17 6.51538e-17 -0.248035 -8.41002e-19 7.58645e-19 -0.000290811 -6.60054e-15 -7.31709e-15 -5.21983e-28 0.001415 
4345 1 0.0473197 0.0133822 0.0108143 0 0 0 -3.91089e-17 -1.3746e-17 -0.248035 -8.32503e-19 -2.92608e-19 -0.000290811 3.22542e-15 -9.17666e-15 -6.42605e-28 0.001415 
5820 1 0.0722357 0.0116248 0.00964616 0 0 0 -5.684e-16 5.46328e-16 -0.248035 -2.74862e-18 2.64188e-18 -0.000290811 2.20744e-15 2.29663e-15 6.95937e-29 0.001415 
9994 1 -0.0272948 0.0197145 0.0107783 0 0 0 -1.03998e-16 -9.93489e-17 -0.248035 -8.92817e-19 -8.52905e-19 -0.000290811 2.20666e-14 -2.30992e-14 -1.10346e-27 0.001415 
1280 1 -0.00826091 0.0224106 0.00897287 0 0 0 1.82235e-18 6.75054e-19 -0.248035 -1.75406e-24 -6.49754e-25 -0.000290811 -7.25583e-18 1.95876e-17 2.41315e-32 0.001415 
2812 1 0.0619348 0.0249338 0.0103314 0 0 0 2.0344e-17 1.03224e-16 -0.248035 1.26698e-19 6.42857e-19 -0.000290811 -1.0807e-14 2.12991e-15 2.18941e-28 0.001415 
4219 1 0.00713294 0.0263879 0.0101409 0 0 0 1.36043e-17 -1.00544e-16 -0.248035 2.05902e-19 -1.52175e-18 -0.000290811 2.62617e-14 3.55338e-15 1.9007e-28 0.001415 
3552 1 0.038076 0.0255707 0.0108177 0 0 0 -1.33784e-17 7.82652e-17 -0.248035 -1.31768e-19 7.70855e-19 -0.000290811 -1.80175e-14 -3.07987e-15 4.54732e-28 0.001415 
6216 1 -0.023401 0.0310553 0.0102103 0 0 0 -4.73582e-18 -2.20195e-17 -0.248035 -2.8973e-20 -1.34712e-19 -0.000290811 -3.20907e-15 6.90187e-16 1.60596e-29 0.001415 
8775 1 0.0134757 0.0326995 0.0106963 0 0 0 -1.62975e-17 2.74282e-17 -0.248035 -2.35819e-19 3.96875e-19 -0.000290811 1.00747e-15 5.9863e-16 -5.23296e-29 0.001415 
3968 1 -0.0261983 0.0364757 0.00978901 0 0 0 3.44723e-16 -1.07845e-15 -0.248035 2.16068e-18 -6.75962e-18 -0.000290811 -5.47091e-15 -1.74875e-15 6.72307e-29 0.001415 
7874 1 -0.0157052 0.0360712 0.0104243 0 0 0 2.44731e-17 2.89478e-17 -0.248035 5.65172e-19 6.6851e-19 -0.000290811 2.5403e-15 -2.14762e-15 -2.51614e-28 0.001415 
9745 1 -0.0323504 0.0411674 0.00909531 0 0 0 0 0 -0.248035 0 0 -0.000290811 0 0 0 0.001415 
4098 1 0.0474587 0.0419422 0.00903993 0 0 0 1.71314e-18 -5.82504e-19 -0.248035 6.15132e-20 -2.09158e-20 -0.000290811 3.4935e-16 1.02743e-15 3.35732e-30 0.001415 
4639 1 0.000319678 0.0462251 0.00942115 0 0 0 2.09908e-15 -1.13026e-15 -0.248035 1.36555e-17 -7.35291e-18 -0.000290811 1.42497e-14 2.64641e-14 -1.33801e-27 0.001415 
7349 1 0.0388392 0.0490157 0.00938914 0 0 0 -3.75639e-18 -6.35239e-17 -0.248035 -4.67265e-20 -7.90187e-19 -0.000290811 7.68761e-15 -4.54595e-16 -7.80825e-29 0.001415 
6048 1 -0.0014895 0.0671831 0.0107036 0 0 0 -1.27379e-16 -7.65446e-18 -0.248035 -1.45592e-18 -8.74896e-20 -0.000290811 1.48167e-15 -2.46566e-14 -2.15497e-28 0.001415 
3318 1 0.0108764 -0.0748018 0.0114783 0 0 0 0 0 -0.248035 0 0 -0.000290811 0 0 0 0.001415 
6407 1 -0.0157638 -0.0542001 0.0111005 0 0 0 -2.61768e-17 7.63156e-18 -0.248035 -1.40492e-19 4.0959e-20 -0.000290811 -1.10515e-15 -3.79075e-15 1.45654e-29 0.001415 
4748 1 -0.0463698 -0.05198 0.0118507 0 0 0 -2.01787e-17 2.95035e-18 -0.248035 -4.17967e-19 6.11116e-20 -0.000290811 -7.00424e-15 -4.79049e-14 3.17328e-28 0.001415 
8903 1 0.00719176 -0.0530399 0.0116263 0 0 0 -1.17293e-17 9.90243e-17 -0.248035 -1.0241e-19 8.64595e-19 -0.000290811 -2.7879e-14 -3.30223e-15 3.85023e-28 0.001415 
9217 1 -0.0337766 -0.0507822 0.0125949 0 0 0 -3.82611e-16 9.90378e-16 -0.248035 -8.93714e-19 2.31335e-18 -0.000290811 3.97846e-15 1.53699e-15 1.69508e-27 0.001415 
8421 1 -0.0125515 -0.050364 0.0113038 0 0 0 1.71913e-17 -4.59041e-17 -0.248035 3.11635e-19 -8.32129e-19 -0.000290811 5.8988e-15 2.20912e-15 -1.48176e-27 0.001415 
5040 1 0.0412118 -0.051077 0.0108809 0 0 0 0 0 -0.248035 0 0 -0.000290811 0 0 0 0.001415 
164 1 0.023501 -0.0400947 0.0125297 0 0 0 -0.00275479 -0.0367697 -0.00773201 1.53066e-09 2.04306e-08 -0.000291045 8.21565 -0.615518 -1.82185e-11 0.001415 
7141 1 -0.0440609 -0.0300013 0.0118414 0 0 0 -2.97609e-18 2.95406e-18 -0.248035 -4.33538e-19 4.30329e-19 -0.000290811 -5.13222e-16 -5.17049e-16 -1.48056e-29 0.001415 
6550 1 -0.00716818 -0.0295154 0.0114597 0 0 0 5.28872e-18 -8.57177e-19 -0.248035 4.77513e-19 -7.73936e-20 -0.000290811 -3.00803e-16 -1.85594e-15 -5.30572e-29 0.001415 
1113 1 0.057839 -0.0250229 0.0126716 0 0 0 1.92135e-15 9.85742e-16 -0.248035 7.87633e-18 4.04092e-18 -0.000290811 1.99705e-14 -3.89254e-14 3.9728e-28 0.001415 
9788 1 -0.0191042 -0.0222982 0.0116933 0 0 0 -6.09985e-17 -7.58497e-17 -0.248035 -6.40747e-19 -7.96748e-19 -0.000290811 2.46104e-14 -1.97917e-14 1.81986e-27 0.001415 
1405 1 0.0162037 -0.0193109 0.0115491 0 0 0 -1.44637e-16 -4.23138e-17 -0.248035 -1.45623e-18 -4.26023e-19 -0.000290811 8.28752e-15 -2.83284e-14 -8.31411e-28 0.001415 
8819 1 0.00974619 -0.0192248 0.0117241 0 0 0 4.77297e-18 1.46802e-16 -0.248035 3.79034e-20 1.16579e-18 -0.000290811 -3.22402e-14 1.04823e-15 -3.07242e-28 0.001415 
3530 1 0.0663652 -0.0174708 0.0126214 0 0 0 8.59194e-16 1.05526e-15 -0.248035 -2.37703e-20 -2.91946e-20 -0.000290811 7.10155e-15 -5.78209e-15 1.14696e-27 0.001415 
8587 1 -0.0404076 -0.0166605 0.0119913 0 0 0 6.83566e-17 -9.02741e-16 -0.248035 9.3744e-20 -1.23802e-18 -0.000290811 -1.75661e-14 -1.33013e-15 -1.74022e-29 0.001415 
4472 1 -0.0211077 -0.0159411 0.0117987 0 0 0 -4.84614e-17 1.65655e-16 -0.248035 -3.63959e-19 1.24412e-18 -0.000290811 -4.19327e-14 -1.22672e-14 -5.80103e-28 0.001415 
5436 1 0.0238697 -0.0121851 0.0119139 0 0 0 -1.25449e-17 2.38372e-17 -0.248035 -9.97037e-19 1.89452e-18 -0.000290811 2.42157e-14 1.27441e-14 1.50421e-28 0.001415 
2098 1 -0.0163785 -0.0113032 0.011312 0 0 0 -9.6744e-17 -1.75532e-17 -0.248035 -3.06538e-18 -5.5618e-19 -0.000290811 2.9616e-16 -1.63228e-15 -3.25299e-28 0.001415 
4519 1 0.0050482 -0.00799743 0.0123925 0 0 0 -6.32574e-16 7.55166e-16 -0.248035 -1.61747e-18 1.93094e-18 -0.000290811 3.54683e-15 2.97105e-15 1.77702e-27 0.001415 
3527 1 0.053278 -0.000195356 0.0109522 0 0 0 2.91083e-17 1.32384e-17 -0.248035 1.5488e-19 7.04392e-20 -0.000290811 -2.16304e-15 4.75603e-15 -3.34593e-29 0.001415 
4852 1 -0.0576017 0.00160357 0.0117131 0 0 0 5.14948e-17 8.44921e-17 -0.248035 4.4568e-19 7.31268e-19 -0.000290811 -1.70068e-14 1.0365e-14 8.2441e-28 0.001415 
9744 1 -0.0476714 0.00124731 0.0126338 0 0 0 3.21205e-17 3.65879e-17 -0.248035 2.94457e-19 3.35411e-19 -0.000290811 -1.71544e-14 1.50598e-14 1.22795e-27 0.001415 
2456 1 0.0231999 0.00341526 0.0118808 0 0 0 -3.80293e-16 2.39156e-16 -0.248035 -5.65279e-19 3.55489e-19 -0.000290811 5.96279e-15 9.48171e-15 -3.58446e-28 0.001415 
1469 1 -0.0554428 0.00427207 0.0125126 0 0 0 8.06408e-16 7.77098e-16 -0.248035 1.89004e-18 1.82134e-18 -0.000290811 1.87542e-14 -1.94615e-14 1.54496e-28 0.001415 
6444 1 -0.0485008 0.00805 0.0122031 0 0 0 -8.12272e-17 9.89538e-17 -0.248035 -7.13064e-19 8.68679e-19 -0.000290811 -2.28309e-14 -1.87409e-14 -1.48861e-27 0.001415 
5546 1 -0.0286421 0.00814112 0.01266 0 0 0 -1.46388e-15 -8.00323e-16 -0.248035 -4.83849e-18 -2.64527e-18 -0.000290811 -3.57762e-14 6.54386e-14 -4.03274e-27 0.001415 
7897 1 0.0202104 0.0106666 0.0120559 0 0 0 2.58936e-17 1.23425e-16 -0.248035 2.14632e-19 1.02307e-18 -0.000290811 -4.02467e-14 8.44347e-15 -6.25898e-30 0.001415 
4430 1 -0.0607358 0.0123237 0.0123407 0 0 0 -9.14908e-16 1.95445e-16 -0.248035 -2.0358e-18 4.34893e-19 -0.000290811 1.90619e-15 8.92316e-15 -1.12965e-28 0.001415 
5821 1 0.071151 0.0126674 0.0120431 0 0 0 -2.63514e-17 2.53281e-17 -0.248035 -1.02647e-18 9.8661e-19 -0.000290811 -1.4314e-15 -1.48924e-15 -1.93182e-28 0.001415 
1279 1 -0.00741294 0.0227247 0.0116545 0 0 0 -1.12934e-16 -4.1834e-17 -0.248035 -1.29031e-18 -4.77968e-19 -0.000290811 -1.3366e-16 3.60825e-16 -2.17248e-28 0.001415 
4218 1 0.00694369 0.0277865 0.0125938 0 0 0 1.68771e-16 -1.24733e-15 -0.248035 1.13074e-19 -8.35693e-19 -0.000290811 -5.01499e-14 -6.7856e-15 4.33386e-28 0.001415 
9955 1 0.0480973 0.0295036 0.011113 0 0 0 1.15103e-18 6.39256e-18 -0.248035 1.7025e-19 9.45534e-19 -0.000290811 -6.4689e-16 1.16477e-16 -6.75724e-29 0.001415 
6215 1 -0.0229502 0.0331509 0.0120581 0 0 0 -1.28357e-17 -5.96803e-17 -0.248035 -1.29165e-19 -6.00561e-19 -0.000290811 3.92886e-14 -8.44996e-15 -2.6595e-28 0.001415 
3967 1 -0.0257836 0.0351781 0.0122695 0 0 0 -3.35716e-16 1.05028e-15 -0.248035 -5.61067e-19 1.75528e-18 -0.000290811 2.13171e-14 6.81392e-15 -1.47153e-27 0.001415 
4099 1 0.0465216 0.0422608 0.0116912 0 0 0 3.54311e-17 -1.20473e-17 -0.248035 7.96774e-19 -2.70921e-19 -0.000290811 -8.64223e-16 -2.54167e-15 -5.75548e-28 0.001415 
9746 1 -0.0326219 0.0429159 0.0113039 0 0 0 1.7355e-17 -1.11773e-16 -0.248035 1.48273e-19 -9.54932e-19 -0.000290811 3.03818e-14 4.71741e-15 -6.61996e-28 0.001415 
486 1 0.0131757 0.0431015 0.0112884 0 0 0 1.23003e-16 -1.04257e-16 -0.248035 9.71902e-19 -8.23783e-19 -0.000290811 2.61787e-14 3.08857e-14 -4.18846e-28 0.001415 
4638 1 0.00148191 0.0455993 0.0119244 0 0 0 3.94635e-17 -2.12494e-17 -0.248035 2.10487e-18 -1.13338e-18 -0.000290811 -8.35895e-15 -1.55239e-14 1.15657e-27 0.001415 
7348 1 0.0388741 0.0496065 0.0121566 0 0 0 -4.05755e-17 -6.86169e-16 -0.248035 -8.70772e-20 -1.47255e-18 -0.000290811 3.52598e-15 -2.08503e-16 4.22374e-29 0.001415 
8316 1 0.0241447 0.055508 0.011856 0 0 0 0 0 -0.248035 0 0 -0.000290811 0 0 0 0.001415 
4831 1 0.0293284 0.0560787 0.0123254 0 0 0 1.071e-15 -5.95362e-16 -0.248035 3.24634e-18 -1.80461e-18 -0.000290811 -2.57736e-14 -4.63644e-14 2.7238e-28 0.001415 
6909 1 0.00964204 0.0590336 0.0123594 0 0 0 2.45108e-16 -1.47684e-16 -0.248035 1.68769e-18 -1.01688e-18 -0.000290811 4.33618e-14 7.19666e-14 -1.00605e-27 0.001415 
8757 1 0.00829498 0.0765507 0.0127144 0 0 0 0 0 -0.248035 0 0 -0.000290811 0 0 0 0.001415 
3317 1 0.00879117 -0.0741345 0.0132714 0 0 0 1.30445e-15 -4.17443e-16 -0.248035 9.8592e-19 -3.15508e-19 -0.000290811 -2.69099e-14 -8.40899e-14 -2.02283e-27 0.001415 
4537 1 0.0348065 -0.0668743 0.0132493 0 0 0 4.56654e-16 -8.89303e-16 -0.248035 -4.39539e-22 8.55974e-22 -0.000290811 9.44154e-15 4.8482e-15 -4.63232e-29 0.001415 
5120 1 -0.00732864 -0.0640527 0.0130055 0 0 0 -5.07977e-16 -1.78806e-16 -0.248035 1.52873e-18 5.3811e-19 -0.000290811 2.61694e-15 -7.43455e-15 5.92646e-28 0.001415 
8902 1 0.00739974 -0.0547957 0.013836 0 0 0 -1.68325e-16 1.42108e-15 -0.248035 1.02584e-19 -8.66058e-19 -0.000290811 9.12141e-15 1.08042e-15 2.55492e-28 0.001415 
4749 1 -0.0443437 -0.0522762 0.0138041 0 0 0 -1.0858e-15 1.58756e-16 -0.248035 8.55298e-19 -1.25054e-19 -0.000290811 1.60497e-15 1.09771e-14 9.10623e-29 0.001415 
6408 1 -0.0176936 -0.0536375 0.0130926 0 0 0 3.14572e-15 -9.171e-16 -0.248035 1.84541e-17 -5.38009e-18 -0.000290811 -3.82642e-14 -1.31249e-13 -5.06925e-27 0.001415 
5039 1 0.0393096 -0.0515993 0.0129101 0 0 0 1.89672e-15 5.20802e-16 -0.248035 7.35377e-18 2.0192e-18 -0.000290811 1.90549e-14 -6.93965e-14 2.76194e-27 0.001415 
8420 1 -0.0130316 -0.0490822 0.0137807 0 0 0 4.63877e-16 -1.23864e-15 -0.248035 -3.12098e-19 8.33365e-19 -0.000290811 -9.57935e-15 -3.5875e-15 6.75211e-28 0.001415 
8293 1 0.0410995 -0.0444363 0.0128497 0 0 0 7.29132e-16 -1.72818e-15 -0.248035 1.83048e-18 -4.33857e-18 -0.000290811 -1.19737e-13 -5.05181e-14 -8.93053e-28 0.001415 
8782 1 0.00995582 -0.0396456 0.012788 0 0 0 1.04683e-15 4.77559e-16 -0.248035 -9.47948e-19 -4.32448e-19 -0.000290811 1.10434e-14 -2.42076e-14 -9.53762e-28 0.001415 
1765 1 -0.00582286 -0.0341936 0.0135428 0 0 0 1.27229e-15 -3.98147e-16 -0.248035 -1.2246e-21 3.83225e-22 -0.000290811 -1.59981e-14 -5.11223e-14 4.64321e-28 0.001415 
7142 1 -0.0430179 -0.0310366 0.0142599 0 0 0 -9.64344e-16 9.57207e-16 -0.248035 4.34469e-19 -4.31253e-19 -0.000290811 2.55802e-14 2.57709e-14 -1.767e-28 0.001415 
6549 1 -0.00774795 -0.0294214 0.014228 0 0 0 6.44902e-16 -1.04523e-16 -0.248035 -5.29921e-19 8.58877e-20 -0.000290811 8.12618e-16 5.01379e-15 4.02634e-29 0.001415 
2898 1 -0.0015393 -0.0260351 0.013815 0 0 0 8.47834e-16 -1.67371e-16 -0.248035 -8.16058e-22 1.61098e-22 -0.000290811 -5.03169e-16 -2.54886e-15 -8.95299e-29 0.001415 
2604 1 -0.0264828 -0.0239558 0.0135395 0 0 0 2.09304e-15 -9.113e-17 -0.248035 1.01995e-17 -4.44082e-19 -0.000290811 -4.333e-15 -9.9519e-14 -7.63936e-29 0.001415 
7959 1 -0.0480224 -0.0227988 0.0142215 0 0 0 -1.34104e-15 8.36444e-16 -0.248035 1.29078e-21 -8.05095e-22 -0.000290811 2.46515e-14 3.95229e-14 2.38016e-27 0.001415 
8818 1 0.00968245 -0.0211851 0.0137642 0 0 0 4.2981e-17 1.32196e-15 -0.248035 -3.79494e-20 -1.1672e-18 -0.000290811 2.67763e-15 -8.70579e-17 -1.91479e-28 0.001415 
9789 1 -0.0179785 -0.0208985 0.0138802 0 0 0 -9.69746e-16 -1.20585e-15 -0.248035 7.31623e-19 9.0975e-19 -0.000290811 -1.76255e-14 1.41745e-14 8.34314e-28 0.001415 
4471 1 -0.0206599 -0.0174716 0.0141366 0 0 0 -3.18987e-16 1.09039e-15 -0.248035 3.64313e-19 -1.24533e-18 -0.000290811 -7.09829e-15 -2.07656e-15 -2.72656e-28 0.001415 
1404 1 0.0175339 -0.0189217 0.0140165 0 0 0 -1.13673e-15 -3.32552e-16 -0.248035 1.45746e-18 4.26384e-19 -0.000290811 3.01685e-16 -1.03122e-15 3.95502e-28 0.001415 
8586 1 -0.0404855 -0.0156313 0.0146264 0 0 0 -6.77047e-17 8.94132e-16 -0.248035 -2.28513e-19 3.01782e-18 -0.000290811 -5.18252e-14 -3.92427e-15 -1.92797e-28 0.001415 
4388 1 -0.00265555 -0.0161876 0.0132528 0 0 0 5.41635e-16 -2.64041e-16 -0.248035 -6.14156e-19 2.99394e-19 -0.000290811 1.88313e-15 3.86292e-15 -1.3481e-29 0.001415 
2097 1 -0.0180782 -0.0116116 0.0135536 0 0 0 1.47473e-15 2.67574e-16 -0.248035 -1.41946e-21 -2.57546e-22 -0.000290811 8.10362e-15 -4.4663e-14 -1.64085e-27 0.001415 
5435 1 0.0233242 -0.0111485 0.0144901 0 0 0 5.21155e-16 -9.90273e-16 -0.248035 -6.11747e-19 1.16241e-18 -0.000290811 -1.89266e-15 -9.96056e-16 -4.06204e-28 0.001415 
9887 1 -0.0551901 -0.00373509 0.0128495 0 0 0 3.65266e-16 -4.56212e-16 -0.248035 -1.12566e-18 1.40593e-18 -0.000290811 6.6228e-15 5.30255e-15 -1.2132e-28 0.001415 
4853 1 -0.0586257 -7.65915e-05 0.0137472 0 0 0 7.36689e-16 1.20875e-15 -0.248035 -4.46439e-19 -7.32512e-19 -0.000290811 6.15907e-15 -3.75372e-15 -1.25316e-27 0.001415 
9743 1 -0.0492029 -0.00049722 0.0142524 0 0 0 6.46279e-16 7.36166e-16 -0.248035 -2.9511e-19 -3.36155e-19 -0.000290811 1.81623e-14 -1.59446e-14 2.23377e-27 0.001415 
3403 1 0.0399954 0.00144601 0.0127687 0 0 0 -1.67483e-15 7.92564e-17 -0.248035 -6.80926e-18 3.22229e-19 -0.000290811 3.30613e-15 6.98644e-14 -5.54975e-28 0.001415 
3526 1 0.0549212 0.000551996 0.0131316 0 0 0 -1.4733e-15 -6.70058e-16 -0.248035 1.41809e-21 6.44945e-22 -0.000290811 -2.19827e-14 4.83349e-14 -1.36595e-27 0.001415 
3843 1 -0.0432547 0.00201405 0.0133542 0 0 0 1.21461e-15 8.27592e-16 -0.248035 -1.16909e-21 -7.96575e-22 -0.000290811 1.69869e-14 -2.49307e-14 2.01315e-27 0.001415 
2455 1 0.0236249 0.00314802 0.0146659 0 0 0 2.34446e-16 -1.47437e-16 -0.248035 8.04546e-19 -5.05958e-19 -0.000290811 6.76724e-15 1.07609e-14 -3.20235e-28 0.001415 
6238 1 0.0476834 0.00358837 0.0128897 0 0 0 2.111e-15 -1.35825e-15 -0.248035 7.50544e-18 -4.82912e-18 -0.000290811 -5.83153e-14 -9.06338e-14 9.25085e-28 0.001415 
7479 1 0.00708078 0.00479504 0.0127965 0 0 0 -7.24529e-16 7.34717e-16 -0.248035 5.83865e-19 -5.92076e-19 -0.000290811 2.70311e-15 2.66562e-15 3.1427e-28 0.001415 
6443 1 -0.0474965 0.00682656 0.014549 0 0 0 -8.10555e-16 9.87447e-16 -0.248035 8.11244e-19 -9.88286e-19 -0.000290811 1.04567e-14 8.58352e-15 -1.81114e-28 0.001415 
7898 1 0.0197791 0.00861083 0.0139524 0 0 0 2.7902e-16 1.32998e-15 -0.248035 -2.14925e-19 -1.02446e-18 -0.000290811 1.29949e-14 -2.72623e-15 -4.6811e-28 0.001415 
4366 1 0.0434972 0.010956 0.0129676 0 0 0 -7.95399e-16 7.17508e-16 -0.248035 8.41837e-19 -7.59398e-19 -0.000290811 2.77722e-15 3.07871e-15 -5.2214e-28 0.001415 
1176 1 0.023371 0.01534 0.0139539 0 0 0 1.79907e-17 1.52443e-15 -0.248035 -1.73165e-23 -1.4673e-21 -0.000290811 2.40534e-14 -2.83868e-16 -5.20567e-30 0.001415 
4344 1 0.0486622 0.0138541 0.0132605 0 0 0 -1.28552e-15 -4.51835e-16 -0.248035 9.6092e-19 3.37745e-19 -0.000290811 -3.06183e-15 8.71124e-15 6.07288e-28 0.001415 
5822 1 0.0700663 0.01371 0.01444 0 0 0 1.10306e-15 -1.06022e-15 -0.248035 -1.06172e-21 1.02049e-21 -0.000290811 -2.64086e-14 -2.74756e-14 9.19596e-28 0.001415 
9808 1 -0.0411335 0.0170646 0.0144852 0 0 0 1.07637e-15 -8.8773e-16 -0.248035 -1.03603e-21 8.5446e-22 -0.000290811 -3.42593e-14 -4.15393e-14 2.99042e-27 0.001415 
5629 1 -0.00809486 0.0186934 0.0131338 0 0 0 1.94216e-15 3.39754e-17 -0.248035 9.07823e-18 1.58811e-19 -0.000290811 1.87407e-15 -1.07129e-13 4.46518e-28 0.001415 
9993 1 -0.0262716 0.020692 0.0132292 0 0 0 -7.89026e-16 -7.53754e-16 -0.248035 8.93676e-19 8.53726e-19 -0.000290811 -7.59458e-15 7.94997e-15 8.53218e-29 0.001415 
1278 1 -0.00656497 0.0230388 0.0143361 0 0 0 -8.14129e-16 -3.01578e-16 -0.248035 1.2912e-18 4.78298e-19 -0.000290811 5.54559e-15 -1.49707e-14 -1.19527e-29 0.001415 
3553 1 0.038325 0.0241144 0.0132314 0 0 0 -1.92233e-16 1.12458e-15 -0.248035 1.31966e-19 -7.72013e-19 -0.000290811 1.20299e-14 2.05636e-15 7.25187e-28 0.001415 
2811 1 0.0616855 0.0236687 0.0128506 0 0 0 2.39619e-16 1.21581e-15 -0.248035 -2.54291e-19 -1.29025e-18 -0.000290811 -1.55539e-15 3.06547e-16 -1.40628e-28 0.001415 
9956 1 0.047731 0.0274693 0.013046 0 0 0 3.80889e-16 2.11538e-15 -0.248035 1.48618e-18 8.25394e-18 -0.000290811 5.93386e-14 -1.06844e-14 5.56471e-28 0.001415 
6007 1 0.0347873 0.0296881 0.0128159 0 0 0 3.83122e-16 4.29279e-16 -0.248035 -3.68763e-22 -4.1319e-22 -0.000290811 -2.63588e-15 2.35246e-15 1.33563e-29 0.001415 
8774 1 0.0137081 0.0323084 0.0134895 0 0 0 -2.36366e-16 3.97795e-16 -0.248035 2.53348e-19 -4.26375e-19 -0.000290811 -5.02552e-15 -2.98611e-15 -9.54448e-29 0.001415 
6214 1 -0.0224995 0.0352466 0.0139058 0 0 0 -2.78704e-16 -1.29585e-15 -0.248035 1.58423e-19 7.36598e-19 -0.000290811 -1.78111e-14 3.83071e-15 1.11188e-27 0.001415 