ITEM: TIMESTEP
100000
ITEM: NUMBER OF ATOMS
10248
ITEM: BOX BOUNDS ff ff ff
-0.2 0.2
-0.2 0.2
-0.01 0.5
ITEM: ATOMS id type x y z ix iy iz vx vy vz fx fy fz omegax omegay omegaz radius 
5124 1 -0.00943529 -0.0647942 0.00258609 0 0 0 -1.07558e-17 -3.78601e-18 -0.219607 9.76127e-24 3.43594e-24 -0.00029085 2.43551e-16 -6.91912e-16 1.49159e-32 0.001415 
168 1 0.0236553 -0.0380352 0.00152158 0 0 0 1.03553e-17 1.38218e-16 -0.219607 2.36964e-19 3.16289e-18 -0.00029085 1.17651e-15 -8.81441e-17 -1.15079e-30 0.001415 
9891 1 -0.0536741 -0.00562861 0.00247056 0 0 0 7.12638e-18 -8.90074e-18 -0.219607 -6.46745e-24 8.07774e-24 -0.00029085 6.62966e-16 5.30804e-16 -2.89637e-31 0.001415 
8778 1 0.0127785 0.033873 0.00299487 0 0 0 -4.29742e-18 7.2324e-18 -0.219607 3.90007e-24 -6.56367e-24 -0.00029085 -4.43943e-16 -2.63787e-16 3.68638e-31 0.001415 
167 1 0.0236183 -0.0385289 0.00430794 0 0 0 -9.31109e-18 -1.2428e-16 -0.219607 -2.1762e-19 -2.90469e-18 -0.00029085 1.32139e-15 -9.89989e-17 5.27347e-30 0.001415 
5439 1 0.0255064 -0.015295 0.00486344 0 0 0 6.69753e-19 -1.27263e-18 -0.219607 -6.07825e-25 1.15496e-24 -0.00029085 -5.23915e-18 -2.75723e-18 2.22101e-33 0.001415 
4096 1 0.0493328 0.0413049 0.00441545 0 0 0 9.21039e-18 -3.13174e-18 -0.219607 1.29765e-19 -4.41229e-20 -0.00029085 -2.17369e-16 -6.39279e-16 1.05674e-30 0.001415 
5123 1 -0.00890863 -0.0646088 0.00536046 0 0 0 9.81941e-18 3.4564e-18 -0.219607 -8.91147e-24 -3.13681e-24 -0.00029085 2.42101e-16 -6.87794e-16 1.77202e-32 0.001415 
8779 1 0.0136066 -0.0379801 0.00598423 0 0 0 1.14882e-19 5.24084e-20 -0.219607 -1.04259e-25 -4.75625e-26 -0.00029085 -4.07822e-19 8.93967e-19 -5.0077e-34 0.001415 
6552 1 -0.00600865 -0.0297033 0.00660098 0 0 0 7.94162e-19 -1.28715e-19 -0.219607 -7.2073e-25 1.16813e-25 -0.00029085 -4.68484e-19 -2.89051e-18 -2.04098e-34 0.001415 
9890 1 -0.0540531 -0.00515523 0.00523482 0 0 0 -6.21436e-18 7.76163e-18 -0.219607 5.63975e-24 -7.04396e-24 -0.00029085 6.56959e-16 5.25995e-16 -2.89957e-31 0.001415 
4516 1 0.00201022 -0.00437069 0.00602091 0 0 0 -1.07231e-18 1.28013e-18 -0.219607 9.73164e-25 -1.16176e-24 -0.00029085 4.69461e-18 3.93249e-18 -1.24817e-32 0.001415 
5818 1 0.0744051 0.00953964 0.00553036 0 0 0 2.36864e-19 -2.27666e-19 -0.219607 -2.14963e-25 2.06615e-25 -0.00029085 -2.53188e-19 -2.63417e-19 -1.71786e-34 0.001415 
6447 1 -0.0515136 0.0117203 0.0058433 0 0 0 -1.10175e-18 1.34219e-18 -0.219607 9.99879e-25 -1.21809e-24 -0.00029085 4.42248e-18 3.63023e-18 -1.38194e-32 0.001415 
4347 1 0.0446345 0.0124385 0.00660007 0 0 0 -7.28289e-19 -2.55979e-19 -0.219607 6.60948e-25 2.3231e-25 -0.00029085 -2.68508e-19 7.63935e-19 -3.25092e-35 0.001415 
9996 1 -0.0293411 0.0177597 0.00655473 0 0 0 -1.75258e-18 -1.67423e-18 -0.219607 1.59053e-24 1.51943e-24 -0.00029085 -7.58333e-18 7.93819e-18 1.07767e-32 0.001415 
4221 1 0.00751144 0.0235905 0.00591316 0 0 0 3.0844e-20 -2.27957e-19 -0.219607 -2.7992e-26 2.06879e-25 -0.00029085 4.14638e-19 5.61031e-20 1.08551e-34 0.001415 
3550 1 0.0375782 0.0284832 0.00666822 0 0 0 -1.07714e-18 6.30134e-18 -0.219607 9.77539e-25 -5.71869e-24 -0.00029085 3.7127e-17 6.3464e-18 -1.16601e-32 0.001415 
2814 1 0.0624335 0.0274639 0.00597108 0 0 0 1.42416e-19 7.22609e-19 -0.219607 -1.29248e-25 -6.55794e-25 -0.00029085 1.17361e-18 -2.31302e-19 1.95771e-33 0.001415 
8777 1 0.0130109 0.0334818 0.00578805 0 0 0 4.09764e-18 -6.89617e-18 -0.219607 -3.71876e-24 6.25853e-24 -0.00029085 -4.4317e-16 -2.63327e-16 3.68517e-31 0.001415 
4641 1 -0.00200478 0.0474767 0.00509263 0 0 0 -2.10644e-18 1.13423e-18 -0.219607 1.91167e-24 -1.02935e-24 -0.00029085 5.3487e-18 9.9334e-18 -2.46538e-33 0.001415 
5122 1 -0.00838197 -0.0644234 0.00813484 0 0 0 5.04421e-19 1.77555e-19 -0.219607 -8.97655e-21 -3.15972e-21 -0.00029085 8.49668e-17 -2.41385e-16 -1.75992e-30 0.001415 
8780 1 0.0123897 -0.0385353 0.00847817 0 0 0 2.02317e-17 9.22959e-18 -0.219607 2.90172e-19 1.32375e-19 -0.00029085 -1.72488e-15 3.78102e-15 2.15896e-30 0.001415 
166 1 0.0235813 -0.0390227 0.00709429 0 0 0 -9.87983e-19 -1.31871e-17 -0.219607 -1.93444e-20 -2.582e-19 -0.00029085 1.46148e-16 -1.09495e-17 6.42417e-30 0.001415 
1407 1 0.0135434 -0.0200891 0.00729232 0 0 0 -6.80101e-19 -1.98965e-19 -0.219607 6.17216e-25 1.80568e-25 -0.00029085 -4.80066e-19 1.64096e-18 -6.54879e-34 0.001415 
8589 1 -0.0402517 -0.0187189 0.00739928 0 0 0 5.78194e-20 -7.63583e-19 -0.219607 -5.24732e-26 6.92979e-25 -0.00029085 3.63279e-18 2.75079e-19 -1.5363e-32 0.001415 
5438 1 0.0249608 -0.0142584 0.00743961 0 0 0 4.35388e-17 -8.27303e-17 -0.219607 4.90615e-18 -9.32242e-18 -0.00029085 -1.39244e-15 -7.32803e-16 2.48331e-30 0.001415 
2100 1 -0.012979 -0.0106864 0.00750693 0 0 0 9.67477e-17 1.75538e-17 -0.219607 1.14554e-17 2.07846e-18 -0.00029085 -8.73786e-17 4.81586e-16 8.35301e-31 0.001415 
9889 1 -0.0544321 -0.00468185 0.00799909 0 0 0 -9.12024e-19 1.1391e-18 -0.219607 8.27695e-25 -1.03378e-24 -0.00029085 -6.00723e-18 -4.8097e-18 -3.20206e-34 0.001415 
4517 1 0.00302288 -0.0055796 0.0083708 0 0 0 1.07231e-18 -1.28013e-18 -0.219607 -9.73164e-25 1.16176e-24 -0.00029085 4.69461e-18 3.93249e-18 -1.24817e-32 0.001415 
7477 1 0.00556963 0.00632744 0.0082397 0 0 0 0 0 -0.219607 0 0 -0.00029085 0 0 0 0.001415 
6446 1 -0.0505093 0.0104969 0.00818925 0 0 0 -1.76893e-18 2.15497e-18 -0.219607 -4.17801e-20 5.08979e-20 -0.00029085 3.10629e-17 2.54983e-17 5.11687e-31 0.001415 
5819 1 0.0733204 0.0105822 0.0079273 0 0 0 -2.36864e-19 2.27666e-19 -0.219607 2.14963e-25 -2.06615e-25 -0.00029085 -2.53188e-19 -2.63417e-19 -1.71786e-34 0.001415 
4368 1 0.0417993 0.0124877 0.0084681 0 0 0 0 0 -0.219607 0 0 -0.00029085 0 0 0 0.001415 
1281 1 -0.00910888 0.0220965 0.00696931 0 0 0 -7.20046e-19 -2.66726e-19 -0.219607 6.53467e-25 2.42064e-25 -0.00029085 -8.97997e-19 2.4242e-18 -9.39135e-34 0.001415 
4220 1 0.00732219 0.0249892 0.00836607 0 0 0 1.13435e-18 -8.3836e-18 -0.219607 1.74771e-20 -1.29167e-19 -0.00029085 -7.16729e-17 -9.69778e-18 5.32486e-31 0.001415 
2813 1 0.0621842 0.0261988 0.00849027 0 0 0 9.77735e-19 4.96094e-18 -0.219607 1.71801e-20 8.71706e-20 -0.00029085 -1.40614e-16 2.77132e-17 -5.7983e-32 0.001415 
8776 1 0.0132433 0.0330907 0.00858124 0 0 0 -4.80935e-19 8.09396e-19 -0.219607 -1.04721e-20 1.76241e-20 -0.00029085 -3.79449e-17 -2.25465e-17 3.81768e-31 0.001415 
3969 1 -0.0266131 0.0377733 0.00798655 0 0 0 -1.14039e-17 3.56767e-17 -0.219607 -1.60739e-19 5.02868e-19 -0.00029085 -3.33231e-15 -1.06516e-15 1.62082e-30 0.001415 
7875 1 -0.0151895 0.0366812 0.00838748 0 0 0 3.05015e-18 3.60785e-18 -0.219607 4.31237e-20 5.10086e-20 -0.00029085 2.77131e-16 -2.34292e-16 -1.21764e-31 0.001415 
484 1 0.0153265 0.0412785 0.00705873 0 0 0 2.85381e-18 -2.41889e-18 -0.219607 -2.58994e-24 2.19523e-24 -0.00029085 -1.26414e-17 -1.49144e-17 1.11463e-32 0.001415 
4097 1 0.0483957 0.0416236 0.00706673 0 0 0 -7.75084e-18 2.63546e-18 -0.219607 -1.29766e-19 4.41234e-20 -0.00029085 -2.1889e-16 -6.43751e-16 1.05528e-30 0.001415 
4640 1 -0.000842548 0.0468509 0.00759593 0 0 0 -1.18904e-16 6.40244e-17 -0.219607 -1.23623e-17 6.65658e-18 -0.00029085 -4.53604e-17 -8.42416e-17 2.18663e-30 0.001415 
7350 1 0.0388042 0.0484249 0.0072998 0 0 0 -4.44033e-21 -7.509e-20 -0.219607 4.02976e-27 6.81469e-26 -0.00029085 2.59558e-19 -1.53485e-20 3.67263e-36 0.001415 
6406 1 -0.013834 -0.0547628 0.00978657 0 0 0 1.14197e-17 -3.32928e-18 -0.219607 1.61787e-19 -4.71672e-20 -0.00029085 -1.87557e-16 -6.43336e-16 -7.38265e-31 0.001415 
4747 1 -0.048396 -0.0516837 0.0105753 0 0 0 -3.4008e-17 4.97236e-18 -0.219607 -4.84853e-19 7.0891e-20 -0.00029085 -1.79902e-16 -1.23043e-15 -3.54016e-31 0.001415 
8904 1 0.00698378 -0.051284 0.0100947 0 0 0 0 0 -0.219607 0 0 -0.00029085 0 0 0 0.001415 
9219 1 -0.0350531 -0.0474779 0.00885846 0 0 0 0 0 -0.219607 0 0 -0.00029085 0 0 0 0.001415 
8295 1 0.0424827 -0.0477148 0.00912617 0 0 0 0 0 -0.219607 0 0 -0.00029085 0 0 0 0.001415 
165 1 0.0235443 -0.0395164 0.00988064 0 0 0 2.43934e-19 3.25592e-18 -0.219607 9.10671e-21 1.21552e-19 -0.00029085 -6.53092e-17 4.89298e-18 1.43052e-29 0.001415 
6551 1 -0.00658842 -0.0296093 0.00936937 0 0 0 2.66824e-18 -4.32459e-19 -0.219607 4.90122e-20 -7.94373e-21 -0.00029085 -3.4512e-17 -2.12937e-16 1.53192e-32 0.001415 
9787 1 -0.0202299 -0.023698 0.0101845 0 0 0 -4.84065e-18 -6.0192e-18 -0.219607 -7.06075e-20 -8.77982e-20 -0.00029085 -2.9124e-16 2.34216e-16 -2.90595e-30 0.001415 
1406 1 0.0148736 -0.0197 0.00975974 0 0 0 6.80101e-19 1.98965e-19 -0.219607 -6.17216e-25 -1.80568e-25 -0.00029085 -4.80066e-19 1.64096e-18 -6.54879e-34 0.001415 
8588 1 -0.0403296 -0.0176897 0.0100344 0 0 0 3.63019e-18 -4.79416e-17 -0.219607 7.02707e-20 -9.2802e-19 -0.00029085 5.33558e-15 4.04016e-16 4.0796e-29 0.001415 
8820 1 0.00980992 -0.0172644 0.0103621 0 0 0 0 0 -0.219607 0 0 -0.00029085 0 0 0 0.001415 
3529 1 0.0670132 -0.0166749 0.0106621 0 0 0 0 0 -0.219607 0 0 -0.00029085 0 0 0 0.001415 
4473 1 -0.0215554 -0.0144106 0.0101388 0 0 0 0 0 -0.219607 0 0 -0.00029085 0 0 0 0.001415 
5437 1 0.0244153 -0.0132218 0.0100158 0 0 0 -3.47172e-17 6.59679e-17 -0.219607 -4.737e-18 9.00101e-18 -0.00029085 4.70372e-16 2.47545e-16 5.69447e-30 0.001415 
2099 1 -0.0146787 -0.0109948 0.00974851 0 0 0 -9.17733e-17 -1.66513e-17 -0.219607 -1.13338e-17 -2.0564e-18 -0.00029085 -4.44732e-17 2.45114e-16 4.11281e-31 0.001415 
3528 1 0.0516347 -0.000942708 0.00945078 0 0 0 -1.27539e-17 -5.80045e-18 -0.219607 -1.8018e-19 -8.19457e-20 -0.00029085 -3.75773e-16 8.26239e-16 -9.92415e-31 0.001415 
2457 1 0.0227749 0.00368251 0.00977376 0 0 0 0 0 -0.219607 0 0 -0.00029085 0 0 0 0.001415 
6445 1 -0.0495051 0.00927345 0.0105352 0 0 0 -1.31667e-19 1.60401e-19 -0.219607 -5.72878e-21 6.979e-21 -0.00029085 -1.47102e-16 -1.2075e-16 2.82672e-30 0.001415 
4431 1 -0.0620527 0.012605 0.0105297 0 0 0 -2.86408e-17 6.11832e-18 -0.219607 -5.98581e-19 1.2787e-19 -0.00029085 -1.04749e-15 -4.90346e-15 -4.13292e-29 0.001415 
4346 1 0.0459771 0.0129104 0.00904624 0 0 0 -7.24397e-18 -2.54611e-18 -0.219607 -1.12864e-19 -3.96694e-20 -0.00029085 -1.76904e-16 5.03311e-16 -9.24575e-31 0.001415 
5820 1 0.0722357 0.0116248 0.0103242 0 0 0 6.41687e-18 -6.16769e-18 -0.219607 9.08126e-20 -8.72861e-20 -0.00029085 -4.18183e-16 -4.35079e-16 -3.37002e-30 0.001415 
9995 1 -0.0283179 0.0187371 0.00900558 0 0 0 1.75258e-18 1.67423e-18 -0.219607 -1.59053e-24 -1.51943e-24 -0.00029085 -7.58333e-18 7.93819e-18 1.07767e-32 0.001415 
1280 1 -0.00826091 0.0224106 0.00965095 0 0 0 7.20046e-19 2.66726e-19 -0.219607 -6.53467e-25 -2.42064e-25 -0.00029085 -8.97997e-19 2.4242e-18 -9.39135e-34 0.001415 
3551 1 0.0378271 0.027027 0.00908198 0 0 0 1.07714e-18 -6.30134e-18 -0.219607 -9.77539e-25 5.71869e-24 -0.00029085 3.7127e-17 6.3464e-18 -1.16601e-32 0.001415 
3968 1 -0.0261983 0.0364757 0.0104671 0 0 0 1.14039e-17 -3.56767e-17 -0.219607 1.60739e-19 -5.02868e-19 -0.00029085 -3.33231e-15 -1.06516e-15 1.62082e-30 0.001415 
9745 1 -0.0323504 0.0411674 0.00977339 0 0 0 0 0 -0.219607 0 0 -0.00029085 0 0 0 0.001415 
485 1 0.0142511 0.04219 0.00951262 0 0 0 -2.85381e-18 2.41889e-18 -0.219607 2.58994e-24 -2.19523e-24 -0.00029085 -1.26414e-17 -1.49144e-17 1.11463e-32 0.001415 
4098 1 0.0474587 0.0419422 0.00971801 0 0 0 1.1847e-18 -4.02825e-19 -0.219607 3.77294e-20 -1.28288e-20 -0.00029085 -2.83837e-17 -8.3476e-17 -1.75741e-31 0.001415 
4639 1 0.000319678 0.0462251 0.0100992 0 0 0 1.09063e-16 -5.87255e-17 -0.219607 1.21142e-17 -6.52296e-18 -0.00029085 2.53703e-16 4.71168e-16 5.61285e-31 0.001415 
7349 1 0.0388392 0.0490157 0.0100672 0 0 0 -6.94677e-19 -1.17476e-17 -0.219607 -1.68916e-20 -2.85652e-19 -0.00029085 -2.27199e-16 1.34351e-17 -3.16165e-30 0.001415 
3318 1 0.0108764 -0.0748018 0.0121563 0 0 0 0 0 -0.219607 0 0 -0.00029085 0 0 0 0.001415 
5121 1 -0.0078553 -0.064238 0.0109092 0 0 0 -8.72346e-18 -3.07063e-18 -0.219607 -2.20884e-19 -7.77505e-20 -0.00029085 -2.56653e-16 7.29134e-16 5.36699e-29 0.001415 
6407 1 -0.0157638 -0.0542001 0.0117786 0 0 0 -1.14197e-17 3.32928e-18 -0.219607 -1.61787e-19 4.71672e-20 -0.00029085 -1.87557e-16 -6.43336e-16 -7.38265e-31 0.001415 
4748 1 -0.0463698 -0.05198 0.0125288 0 0 0 1.34692e-17 -1.96936e-18 -0.219607 -2.0241e-20 2.95946e-21 -0.00029085 -1.35826e-15 -9.28969e-15 3.33813e-29 0.001415 
8903 1 0.00719176 -0.0530399 0.0123044 0 0 0 -2.20781e-18 1.86394e-17 -0.219607 -6.01002e-20 5.07394e-19 -0.00029085 -4.66105e-15 -5.52096e-16 4.1923e-29 0.001415 
8421 1 -0.0125515 -0.050364 0.0119818 0 0 0 0 0 -0.219607 0 0 -0.00029085 0 0 0 0.001415 
5040 1 0.0412118 -0.051077 0.0115589 0 0 0 0 0 -0.219607 0 0 -0.00029085 0 0 0 0.001415 
9218 1 -0.0344149 -0.0491301 0.0110657 0 0 0 -6.20137e-18 1.60521e-17 -0.219607 -1.47267e-19 3.81197e-19 -0.00029085 -2.5726e-15 -9.93867e-16 -4.01262e-29 0.001415 
8294 1 0.0417911 -0.0460756 0.011327 0 0 0 0 0 -0.219607 0 0 -0.00029085 0 0 0 0.001415 
8781 1 0.0111727 -0.0390904 0.0109721 0 0 0 -2.03466e-17 -9.282e-18 -0.219607 -2.90172e-19 -1.32375e-19 -0.00029085 -1.72447e-15 3.78013e-15 2.15946e-30 0.001415 
7141 1 -0.0440609 -0.0300013 0.0125195 0 0 0 0 0 -0.219607 0 0 -0.00029085 0 0 0 0.001415 
6550 1 -0.00716818 -0.0295154 0.0121377 0 0 0 -3.4624e-18 5.61174e-19 -0.219607 -4.90115e-20 7.94362e-21 -0.00029085 -3.40435e-17 -2.10046e-16 1.55233e-32 0.001415 
9788 1 -0.0191042 -0.0222982 0.0123714 0 0 0 -3.33629e-18 -4.14857e-18 -0.219607 -1.79016e-19 -2.22601e-19 -0.00029085 3.71835e-15 -2.99031e-15 1.06943e-28 0.001415 
1405 1 0.0162037 -0.0193109 0.0122272 0 0 0 -2.74151e-17 -8.02035e-18 -0.219607 -6.41228e-19 -1.87592e-19 -0.00029085 1.17847e-15 -4.02824e-15 -4.45079e-29 0.001415 
8819 1 0.00974619 -0.0192248 0.0124022 0 0 0 1.14875e-18 3.53318e-17 -0.219607 2.55273e-20 7.8514e-19 -0.00029085 -4.53188e-15 1.47345e-16 -3.53656e-29 0.001415 
4472 1 -0.0211077 -0.0159411 0.0124768 0 0 0 -1.30772e-17 4.47016e-17 -0.219607 -2.63976e-19 9.02346e-19 -0.00029085 -7.76131e-15 -2.27053e-15 -8.03835e-29 0.001415 
4389 1 -0.00210167 -0.0164576 0.0111688 0 0 0 4.43715e-18 -2.16306e-18 -0.219607 1.32225e-19 -6.44583e-20 -0.00029085 -1.62734e-16 -3.3382e-16 -6.98255e-30 0.001415 
2098 1 -0.0163785 -0.0113032 0.0119901 0 0 0 -4.97441e-18 -9.02553e-19 -0.219607 -1.21602e-19 -2.20634e-20 -0.00029085 4.29054e-17 -2.36473e-16 -4.2402e-31 0.001415 
4518 1 0.00403554 -0.00678852 0.0107207 0 0 0 -1.77619e-17 2.12041e-17 -0.219607 -3.72112e-19 4.44227e-19 -0.00029085 -4.88835e-15 -4.09479e-15 -9.61397e-29 0.001415 
9888 1 -0.0548111 -0.00420847 0.0107634 0 0 0 4.86476e-18 -6.07601e-18 -0.219607 1.32729e-19 -1.65777e-19 -0.00029085 -2.49873e-16 -2.00061e-16 -9.38842e-30 0.001415 
3527 1 0.053278 -0.000195356 0.0116302 0 0 0 1.27539e-17 5.80045e-18 -0.219607 1.8018e-19 8.19457e-20 -0.00029085 -3.75773e-16 8.26239e-16 -9.92415e-31 0.001415 
4852 1 -0.0576017 0.00160357 0.0123912 0 0 0 9.9144e-18 1.62674e-17 -0.219607 2.64861e-19 4.3458e-19 -0.00029085 -2.64981e-15 1.61496e-15 3.36641e-29 0.001415 
2456 1 0.0231999 0.00341526 0.0125589 0 0 0 -2.11518e-16 1.33018e-16 -0.219607 -2.21991e-18 1.39604e-18 -0.00029085 8.83544e-16 1.40496e-15 -2.70442e-29 0.001415 
1470 1 -0.0541433 0.00552442 0.0110109 0 0 0 2.10185e-17 2.02546e-17 -0.219607 4.45295e-19 4.2911e-19 -0.00029085 -4.48682e-15 4.65605e-15 6.26386e-29 0.001415 
7478 1 0.0063252 0.00556124 0.0108571 0 0 0 0 0 -0.219607 0 0 -0.00029085 0 0 0 0.001415 
5545 1 -0.0302182 0.00727945 0.0111512 0 0 0 0 0 -0.219607 0 0 -0.00029085 0 0 0 0.001415 
4367 1 0.0426483 0.0117219 0.0110569 0 0 0 -1.05997e-17 9.56169e-18 -0.219607 -2.89565e-19 2.61209e-19 -0.00029085 -7.26345e-16 -8.05196e-16 2.00554e-29 0.001415 
4345 1 0.0473197 0.0133822 0.0114924 0 0 0 7.97226e-18 2.80209e-18 -0.219607 1.12863e-19 3.96691e-20 -0.00029085 -1.76635e-16 5.02547e-16 -9.24542e-31 0.001415 
9994 1 -0.0272948 0.0197145 0.0114564 0 0 0 -1.99968e-17 -1.91029e-17 -0.219607 -4.60743e-19 -4.40147e-19 -0.00029085 3.00942e-15 -3.15025e-15 5.72858e-29 0.001415 
1279 1 -0.00741294 0.0227247 0.0123326 0 0 0 -2.33603e-17 -8.65337e-18 -0.219607 -5.17781e-19 -1.91801e-19 -0.00029085 2.16751e-16 -5.85135e-16 -2.64245e-29 0.001415 
2812 1 0.0619348 0.0249338 0.0110095 0 0 0 2.51682e-18 1.27701e-17 -0.219607 7.93608e-20 4.0267e-19 -0.00029085 -1.01238e-15 1.99527e-16 -3.38573e-29 0.001415 
4219 1 0.00713294 0.0263879 0.010819 0 0 0 1.78186e-18 -1.31691e-17 -0.219607 5.64869e-20 -4.17475e-19 -0.00029085 2.51641e-15 3.40486e-16 -1.36889e-30 0.001415 
3552 1 0.038076 0.0255707 0.0114957 0 0 0 -1.54152e-18 9.01804e-18 -0.219607 -4.69631e-20 2.74739e-19 -0.00029085 -2.34139e-15 -4.00231e-16 3.03435e-29 0.001415 
9955 1 0.0480973 0.0295036 0.0117911 0 0 0 0 0 -0.219607 0 0 -0.00029085 0 0 0 0.001415 
6216 1 -0.023401 0.0310553 0.0108884 0 0 0 -1.94686e-18 -9.05202e-18 -0.219607 -2.83702e-20 -1.31909e-19 -0.00029085 -3.40746e-16 7.32856e-17 3.74241e-31 0.001415 
8775 1 0.0134757 0.0326995 0.0113744 0 0 0 -1.25787e-18 2.11694e-18 -0.219607 -4.73012e-20 7.96061e-20 -0.00029085 2.05398e-16 1.22046e-16 -6.17661e-30 0.001415 
7874 1 -0.0157052 0.0360712 0.0111024 0 0 0 -3.05015e-18 -3.60785e-18 -0.219607 -4.31237e-20 -5.10086e-20 -0.00029085 2.77131e-16 -2.34292e-16 -1.21764e-31 0.001415 
4099 1 0.0465216 0.0422608 0.0123693 0 0 0 -2.64426e-18 8.99106e-19 -0.219607 -3.7728e-20 1.28284e-20 -0.00029085 -2.6863e-17 -7.90037e-17 -1.74279e-31 0.001415 
9746 1 -0.0326219 0.0429159 0.011982 0 0 0 3.47135e-18 -2.23567e-17 -0.219607 8.99912e-20 -5.79576e-19 -0.00029085 5.13069e-15 7.96646e-16 -3.05245e-29 0.001415 
486 1 0.0131757 0.0431015 0.0119665 0 0 0 2.93631e-17 -2.48881e-17 -0.219607 6.18969e-19 -5.24637e-19 -0.00029085 5.25706e-15 6.20229e-15 -1.62593e-29 0.001415 
8316 1 0.0241447 0.055508 0.0125341 0 0 0 0 0 -0.219607 0 0 -0.00029085 0 0 0 0.001415 
6048 1 -0.0014895 0.0671831 0.0113817 0 0 0 -2.07788e-17 -1.24864e-18 -0.219607 -5.49021e-19 -3.29919e-20 -0.00029085 1.60518e-16 -2.6712e-15 -5.75955e-30 0.001415 
3317 1 0.00879117 -0.0741345 0.0139495 0 0 0 7.77639e-16 -2.48855e-16 -0.219607 1.80774e-17 -5.78501e-18 -0.00029085 -3.24868e-15 -1.01517e-14 -4.09545e-28 0.001415 
4537 1 0.0348065 -0.0668743 0.0139274 0 0 0 2.48398e-16 -4.83739e-16 -0.219607 5.52745e-18 -1.07643e-17 -0.00029085 6.18669e-15 3.17684e-15 -1.64465e-29 0.001415 
5120 1 -0.00732864 -0.0640527 0.0136836 0 0 0 -3.01448e-16 -1.06109e-16 -0.219607 -6.80611e-18 -2.39573e-18 -0.00029085 1.48927e-15 -4.23092e-15 5.90445e-29 0.001415 
4749 1 -0.0443437 -0.0522762 0.0144822 0 0 0 -5.73474e-16 8.38484e-17 -0.219607 -1.47193e-17 2.15213e-18 -0.00029085 1.70276e-15 1.16458e-14 2.28606e-29 0.001415 
6408 1 -0.0176936 -0.0536375 0.0137707 0 0 0 8.34452e-16 -2.43275e-16 -0.219607 1.91886e-17 -5.59423e-18 -0.00029085 -1.52316e-15 -5.22454e-15 8.48334e-29 0.001415 
9217 1 -0.0337766 -0.0507822 0.013273 0 0 0 -2.16348e-16 5.6001e-16 -0.219607 -2.10556e-18 5.45018e-18 -0.00029085 -3.83632e-17 -1.48208e-17 5.04115e-28 0.001415 
5039 1 0.0393096 -0.0515993 0.0135882 0 0 0 7.62997e-16 2.09504e-16 -0.219607 1.40612e-17 3.86093e-18 -0.00029085 1.43741e-15 -5.23495e-15 1.81112e-28 0.001415 
8420 1 -0.0130316 -0.0490822 0.0144588 0 0 0 2.53135e-16 -6.7592e-16 -0.219607 5.97968e-18 -1.5967e-17 -0.00029085 -2.27129e-16 -8.50608e-17 2.79949e-28 0.001415 
8293 1 0.0410995 -0.0444363 0.0135278 0 0 0 3.31984e-16 -7.86864e-16 -0.219607 7.73055e-18 -1.83229e-17 -0.00029085 -1.58521e-14 -6.68814e-15 3.47587e-28 0.001415 
8782 1 0.00995582 -0.0396456 0.0134661 0 0 0 5.71485e-16 2.60708e-16 -0.219607 1.41384e-17 6.44985e-18 -0.00029085 4.84026e-15 -1.06101e-14 -2.42e-28 0.001415 
164 1 0.0235073 -0.0400101 0.012667 0 0 0 2.11915e-17 2.82854e-16 -0.219607 3.25737e-19 4.34778e-18 -0.00029085 -3.90109e-15 2.9227e-16 1.99176e-29 0.001415 
1765 1 -0.00582286 -0.0341936 0.0142209 0 0 0 6.53705e-16 -2.04569e-16 -0.219607 1.58986e-17 -4.97527e-18 -0.00029085 -4.90583e-15 -1.56767e-14 5.60324e-29 0.001415 
2898 1 -0.0015393 -0.0260351 0.0144931 0 0 0 4.62054e-16 -9.12138e-17 -0.219607 1.02637e-17 -2.02615e-18 -0.00029085 3.69804e-16 1.87328e-15 -3.50049e-29 0.001415 
1113 1 0.057839 -0.0250229 0.0133497 0 0 0 7.10856e-16 3.64702e-16 -0.219607 1.6678e-17 8.55659e-18 -0.00029085 3.5954e-15 -7.00796e-15 -1.08765e-28 0.001415 
2604 1 -0.0264828 -0.0239558 0.0142176 0 0 0 6.69848e-16 -2.91648e-17 -0.219607 1.57981e-17 -6.87839e-19 -0.00029085 -8.09247e-16 -1.85865e-14 3.09759e-29 0.001415 
8818 1 0.00968245 -0.0211851 0.0144423 0 0 0 2.34351e-17 7.20791e-16 -0.219607 5.69209e-19 1.75071e-17 -0.00029085 1.62197e-15 -5.27353e-17 -2.47428e-29 0.001415 
3530 1 0.0663652 -0.0174708 0.0132995 0 0 0 4.37785e-16 5.37686e-16 -0.219607 9.42138e-18 1.15713e-17 -0.00029085 -9.84725e-16 8.01764e-16 -4.73293e-28 0.001415 
8587 1 -0.0404076 -0.0166605 0.0126694 0 0 0 3.66424e-17 -4.83912e-16 -0.219607 4.94595e-19 -6.53179e-18 -0.00029085 1.61699e-15 1.22441e-16 -1.58209e-29 0.001415 
4388 1 -0.00265555 -0.0161876 0.0139309 0 0 0 3.09034e-16 -1.50651e-16 -0.219607 7.07017e-18 -3.44662e-18 -0.00029085 1.90894e-15 3.91586e-15 1.48988e-29 0.001415 
2097 1 -0.0180782 -0.0116116 0.0142317 0 0 0 7.74848e-16 1.40588e-16 -0.219607 1.83791e-17 3.33468e-18 -0.00029085 2.56064e-15 -1.41129e-14 -2.29629e-28 0.001415 
5436 1 0.0238697 -0.0121851 0.012592 0 0 0 -1.95426e-19 3.71338e-19 -0.219607 6.84466e-20 -1.30059e-19 -0.00029085 3.20206e-15 1.68516e-15 -2.13067e-29 0.001415 
4519 1 0.0050482 -0.00799743 0.0130706 0 0 0 -3.1888e-16 3.80678e-16 -0.219607 -4.12585e-18 4.92543e-18 -0.00029085 1.01438e-15 8.49711e-16 2.48575e-28 0.001415 
9887 1 -0.0551901 -0.00373509 0.0135276 0 0 0 2.16188e-16 -2.70015e-16 -0.219607 4.93266e-18 -6.16081e-18 -0.00029085 3.57542e-15 2.86266e-15 -3.99197e-29 0.001415 
4853 1 -0.0586257 -7.65915e-05 0.0144253 0 0 0 3.98709e-16 6.54198e-16 -0.219607 9.48477e-18 1.55625e-17 -0.00029085 -9.12995e-16 5.56437e-16 7.57141e-29 0.001415 
9744 1 -0.0476714 0.00124731 0.0133118 0 0 0 5.33543e-18 6.0775e-18 -0.219607 1.56501e-19 1.78268e-19 -0.00029085 -1.5085e-15 1.32431e-15 -7.39934e-30 0.001415 
3403 1 0.0399954 0.00144601 0.0134468 0 0 0 -6.7666e-16 3.2021e-17 -0.219607 -1.23997e-17 5.86781e-19 -0.00029085 3.27867e-16 6.9284e-15 -2.52501e-29 0.001415 
3526 1 0.0549212 0.000551996 0.0138097 0 0 0 -7.8158e-16 -3.55463e-16 -0.219607 -1.81257e-17 -8.24355e-18 -0.00029085 -6.95367e-15 1.52895e-14 -8.07799e-28 0.001415 
3843 1 -0.0432547 0.00201405 0.0140323 0 0 0 6.26904e-16 4.27149e-16 -0.219607 1.49685e-17 1.0199e-17 -0.00029085 3.67016e-15 -5.3865e-15 7.997e-28 0.001415 
6238 1 0.0476834 0.00358837 0.0135678 0 0 0 7.94626e-16 -5.11275e-16 -0.219607 1.81172e-17 -1.16569e-17 -0.00029085 -3.75507e-15 -5.83614e-15 4.38772e-29 0.001415 
1469 1 -0.0554428 0.00427207 0.0131907 0 0 0 4.33812e-16 4.18044e-16 -0.219607 4.85837e-18 4.68179e-18 -0.00029085 5.00037e-15 -5.18897e-15 -2.60877e-28 0.001415 
7479 1 0.00708078 0.00479504 0.0134746 0 0 0 -4.08753e-16 4.14501e-16 -0.219607 -9.27667e-18 9.40712e-18 -0.00029085 -1.97617e-15 -1.94877e-15 1.65416e-29 0.001415 
6444 1 -0.0485008 0.00805 0.0128812 0 0 0 -1.21425e-17 1.47924e-17 -0.219607 -3.39432e-19 4.13507e-19 -0.00029085 -4.17819e-15 -3.42971e-15 -1.00483e-28 0.001415 
5546 1 -0.0286421 0.00814112 0.0133381 0 0 0 -7.28503e-16 -3.98283e-16 -0.219607 -9.11925e-18 -4.98562e-18 -0.00029085 -7.86296e-15 1.43822e-14 -2.46205e-28 0.001415 
7897 1 0.0202104 0.0106666 0.012734 0 0 0 5.68355e-18 2.70913e-17 -0.219607 1.35748e-19 6.47056e-19 -0.00029085 -4.43221e-15 9.29846e-16 -6.0835e-30 0.001415 
4366 1 0.0434972 0.010956 0.0136456 0 0 0 -4.58503e-16 4.13603e-16 -0.219607 -1.02422e-17 9.23917e-18 -0.00029085 -7.58412e-16 -8.40743e-16 5.79395e-29 0.001415 
4430 1 -0.0607358 0.0123237 0.0130188 0 0 0 -5.02496e-16 1.07345e-16 -0.219607 -5.43472e-18 1.16098e-18 -0.00029085 6.04685e-16 2.83062e-15 1.14326e-29 0.001415 
5821 1 0.071151 0.0126674 0.0127212 0 0 0 -6.41687e-18 6.16769e-18 -0.219607 -9.08126e-20 8.72861e-20 -0.00029085 -4.18183e-16 -4.35079e-16 -3.37002e-30 0.001415 
4344 1 0.0486622 0.0138541 0.0139386 0 0 0 -7.08295e-16 -2.48952e-16 -0.219607 -1.67159e-17 -5.8753e-18 -0.00029085 -9.19654e-16 2.61652e-15 2.92473e-28 0.001415 
5629 1 -0.00809486 0.0186934 0.0138119 0 0 0 6.97139e-16 1.21955e-17 -0.219607 1.54465e-17 2.70215e-19 -0.00029085 3.86457e-16 -2.20913e-14 4.56889e-29 0.001415 
9993 1 -0.0262716 0.020692 0.0139073 0 0 0 -4.40937e-16 -4.21225e-16 -0.219607 -1.09294e-17 -1.04408e-17 -0.00029085 -5.8677e-15 6.14228e-15 2.50342e-28 0.001415 
3553 1 0.038325 0.0241144 0.0139095 0 0 0 -1.03996e-16 6.08389e-16 -0.219607 -2.60415e-18 1.52345e-17 -0.00029085 6.21424e-15 1.06225e-15 8.71028e-29 0.001415 
2811 1 0.0616855 0.0236687 0.0135286 0 0 0 1.35114e-16 6.85558e-16 -0.219607 3.17456e-18 1.61075e-17 -0.00029085 -2.64163e-15 5.20629e-16 -7.79515e-29 0.001415 
4218 1 0.00694369 0.0277865 0.0132719 0 0 0 8.7871e-17 -6.49423e-16 -0.219607 2.15673e-18 -1.59396e-17 -0.00029085 -6.70652e-15 -9.07434e-16 6.98965e-29 0.001415 
9956 1 0.047731 0.0274693 0.0137241 0 0 0 1.37339e-16 7.62754e-16 -0.219607 3.27138e-18 1.81686e-17 -0.00029085 5.7891e-15 -1.04237e-15 -4.92215e-29 0.001415 
6007 1 0.0347873 0.0296881 0.013494 0 0 0 2.04383e-16 2.29007e-16 -0.219607 4.77272e-18 5.34771e-18 -0.00029085 -2.84597e-15 2.53997e-15 3.91715e-29 0.001415 
8774 1 0.0137081 0.0323084 0.0141676 0 0 0 -1.35055e-16 2.27293e-16 -0.219607 -3.04623e-18 5.1267e-18 -0.00029085 -3.30878e-15 -1.96605e-15 2.80992e-29 0.001415 
6215 1 -0.0229502 0.0331509 0.0127361 0 0 0 -1.19672e-18 -5.56423e-18 -0.219607 -5.99484e-20 -2.78734e-19 -0.00029085 5.4955e-15 -1.18194e-15 -3.18828e-29 0.001415 
3967 1 -0.0257836 0.0351781 0.0129476 0 0 0 -1.80412e-16 5.64412e-16 -0.219607 -1.91842e-18 6.00173e-18 -0.00029085 2.22476e-15 7.11134e-16 -5.44115e-29 0.001415 
7873 1 -0.0162209 0.0354611 0.0138173 0 0 0 2.97406e-16 3.51784e-16 -0.219607 6.76084e-18 7.99702e-18 -0.00029085 -6.15527e-15 5.20379e-15 6.15892e-29 0.001415 
6847 1 -0.0500743 0.0395872 0.013974 0 0 0 -7.52983e-16 3.24778e-16 -0.219607 -1.71289e-17 7.38809e-18 -0.00029085 8.19988e-15 1.9011e-14 -7.82246e-28 0.001415 
487 1 0.0121003 0.044013 0.0144204 0 0 0 4.53161e-16 -3.84099e-16 -0.219607 1.13734e-17 -9.64006e-18 -0.00029085 -2.36669e-15 -2.79223e-15 -5.51461e-29 0.001415 
9747 1 -0.0328934 0.0446643 0.0141907 0 0 0 1.19346e-16 -7.68634e-16 -0.219607 2.81598e-18 -1.81359e-17 -0.00029085 -6.65236e-15 -1.03292e-15 -1.04957e-28 0.001415 
4638 1 0.00148191 0.0455993 0.0126025 0 0 0 3.96505e-18 -2.13501e-18 -0.219607 4.34079e-21 -2.33732e-21 -0.00029085 -6.21686e-16 -1.15457e-15 8.59368e-31 0.001415 
7348 1 0.0388741 0.0496065 0.0128347 0 0 0 -2.00153e-17 -3.38477e-16 -0.219607 -3.02905e-19 -5.12239e-18 -0.00029085 4.79167e-15 -2.83348e-16 -6.58769e-30 0.001415 
8315 1 0.0261215 0.0546907 0.014387 0 0 0 -7.56552e-16 3.1278e-16 -0.219607 -1.75997e-17 7.27621e-18 -0.00029085 1.91365e-15 4.62875e-15 7.66485e-28 0.001415 
4831 1 0.0293284 0.0560787 0.0130034 0 0 0 5.42035e-16 -3.01313e-16 -0.219607 6.58962e-18 -3.66312e-18 -0.00029085 -6.28639e-15 -1.13086e-14 -4.14856e-28 0.001415 
6909 1 0.00964204 0.0590336 0.0130375 0 0 0 7.69679e-17 -4.63752e-17 -0.219607 1.38888e-18 -8.36839e-19 -0.00029085 7.44381e-15 1.23543e-14 -3.32515e-28 0.001415 
6047 1 -2.16486e-05 0.0672713 0.0137996 0 0 0 -7.5758e-16 -4.55246e-17 -0.219607 -1.77371e-17 -1.06586e-18 -0.00029085 -1.09245e-16 1.81795e-15 7.30032e-30 0.001415 
7455 1 0.00864732 0.0657086 0.013946 0 0 0 -3.19581e-17 7.57854e-16 -0.219607 -7.70172e-19 1.82638e-17 -0.00029085 1.53172e-15 6.45913e-17 -1.71359e-29 0.001415 
8757 1 0.00829498 0.0765507 0.0133925 0 0 0 0 0 -0.219607 0 0 -0.00029085 0 0 0 0.001415 
3316 1 0.00670592 -0.0734672 0.0157426 0 0 0 -7.77639e-16 2.48855e-16 -0.219607 -1.80774e-17 5.78501e-18 -0.00029085 -3.24868e-15 -1.01517e-14 -4.09545e-28 0.001415 
2499 1 0.0564696 -0.0568217 0.0158895 0 0 0 6.29286e-18 -1.43976e-17 -0.219607 9.12146e-20 -2.08692e-19 -0.00029085 -4.13806e-16 -1.80866e-16 -2.04311e-30 0.001415 
8902 1 0.00739974 -0.0547957 0.0145141 0 0 0 -9.10102e-17 7.6835e-16 -0.219607 -2.14834e-18 1.81373e-17 -0.00029085 4.78313e-15 5.66556e-16 -5.38981e-30 0.001415 
4054 1 -0.0359786 -0.0521436 0.0161761 0 0 0 0 0 -0.219607 0 0 -0.00029085 0 0 0 0.001415 
9216 1 -0.0331383 -0.0524344 0.0154802 0 0 0 1.84503e-16 -4.77581e-16 -0.219607 -6.77068e-19 1.75257e-18 -0.00029085 4.99262e-15 1.92879e-15 2.7419e-28 0.001415 
6409 1 -0.0196234 -0.0530749 0.0157627 0 0 0 -8.34452e-16 2.43275e-16 -0.219607 -1.91886e-17 5.59423e-18 -0.00029085 -1.52316e-15 -5.22454e-15 8.48334e-29 0.001415 
5038 1 0.0374074 -0.0521216 0.0156174 0 0 0 -7.02044e-16 -1.92767e-16 -0.219607 -1.09833e-17 -3.01579e-18 -0.00029085 1.73432e-15 -6.31627e-15 2.74714e-28 0.001415 
8292 1 0.0404079 -0.0427971 0.0157286 0 0 0 -3.21163e-16 7.61217e-16 -0.219607 -7.46008e-18 1.76818e-17 -0.00029085 -1.53402e-14 -6.47215e-15 3.99984e-28 0.001415 
163 1 0.0234703 -0.0405039 0.0154533 0 0 0 -2.09028e-17 -2.79001e-16 -0.219607 -2.46116e-19 -3.28504e-18 -0.00029085 -2.2878e-15 1.71402e-16 2.4781e-29 0.001415 
8783 1 0.00873888 -0.0402008 0.01596 0 0 0 -5.58006e-16 -2.54559e-16 -0.219607 -1.37676e-17 -6.2807e-18 -0.00029085 4.01041e-15 -8.79102e-15 -1.60483e-28 0.001415 
1766 1 -0.00794199 -0.0335305 0.0159754 0 0 0 -6.03092e-16 1.88731e-16 -0.219607 -1.49146e-17 4.66734e-18 -0.00029085 -4.55699e-15 -1.4562e-14 6.22042e-29 0.001415 
7142 1 -0.0430179 -0.0310366 0.014938 0 0 0 -5.05894e-16 5.0215e-16 -0.219607 -1.2229e-17 1.21385e-17 -0.00029085 7.09254e-15 7.14543e-15 -8.24256e-29 0.001415 
6549 1 -0.00774795 -0.0294214 0.0149061 0 0 0 3.56343e-16 -5.77548e-17 -0.219607 8.03899e-18 -1.30293e-18 -0.00029085 5.98871e-16 3.69499e-15 7.70432e-30 0.001415 
1112 1 0.0563793 -0.0257718 0.0156556 0 0 0 -7.10856e-16 -3.64702e-16 -0.219607 -1.6678e-17 -8.55659e-18 -0.00029085 3.5954e-15 -7.00796e-15 -1.08765e-28 0.001415 
2603 1 -0.028804 -0.0238547 0.0158334 0 0 0 -6.69848e-16 2.91648e-17 -0.219607 -1.57981e-17 6.87839e-19 -0.00029085 -8.09247e-16 -1.85865e-14 3.09759e-29 0.001415 