ITEM: TIMESTEP
60000
ITEM: NUMBER OF ATOMS
10248
ITEM: BOX BOUNDS ff ff ff
-0.2 0.2
-0.2 0.2
-0.01 0.5
ITEM: ATOMS id type x y z ix iy iz vx vy vz fx fy fz omegax omegay omegaz radius 
5124 1 -0.00943529 -0.0647942 0.00275864 0 0 0 -1.04563e-17 -3.68059e-18 -0.211765 9.33086e-24 3.28443e-24 -0.000290861 2.41028e-16 -6.84746e-16 1.33824e-32 0.001415 
168 1 0.0236553 -0.0380352 0.00169413 0 0 0 6.01098e-18 8.02318e-17 -0.211765 6.44657e-20 8.60458e-19 -0.000290861 -1.74501e-16 1.30737e-17 -6.65893e-31 0.001415 
9891 1 -0.0536741 -0.00562861 0.00264311 0 0 0 6.91723e-18 -8.63951e-18 -0.211765 -6.1727e-24 7.7096e-24 -0.000290861 6.56032e-16 5.25253e-16 -2.86264e-31 0.001415 
8778 1 0.0127785 0.033873 0.00316742 0 0 0 -4.16818e-18 7.01488e-18 -0.211765 3.71954e-24 -6.25985e-24 -0.000290861 -4.39581e-16 -2.61195e-16 3.60369e-31 0.001415 
167 1 0.0236183 -0.0385289 0.00448048 0 0 0 -5.4414e-18 -7.26293e-17 -0.211765 -4.79281e-20 -6.39722e-19 -0.000290861 -1.45118e-16 1.08723e-17 1.34037e-30 0.001415 
5439 1 0.0255064 -0.015295 0.00503598 0 0 0 6.69769e-19 -1.27266e-18 -0.211765 -5.97679e-25 1.13568e-24 -0.000290861 -5.23938e-18 -2.75735e-18 2.22111e-33 0.001415 
4096 1 0.0493328 0.0413049 0.00458799 0 0 0 5.63559e-18 -1.91622e-18 -0.211765 1.35363e-19 -4.60263e-20 -0.000290861 -6.83861e-17 -2.01123e-16 2.9253e-31 0.001415 
5123 1 -0.00890863 -0.0646088 0.00553301 0 0 0 9.5199e-18 3.35097e-18 -0.211765 -8.49524e-24 -2.9903e-24 -0.000290861 2.39579e-16 -6.80628e-16 1.61868e-32 0.001415 
8779 1 0.0136066 -0.0379801 0.00615677 0 0 0 1.14885e-19 5.24097e-20 -0.211765 -1.02519e-25 -4.67686e-26 -0.000290861 -4.0784e-19 8.94005e-19 -5.00792e-34 0.001415 
6552 1 -0.00600865 -0.0297033 0.00677353 0 0 0 7.94181e-19 -1.28718e-19 -0.211765 -7.087e-25 1.14864e-25 -0.000290861 -4.68505e-19 -2.89064e-18 -2.04107e-34 0.001415 
9890 1 -0.0540531 -0.00515523 0.00540737 0 0 0 -6.00518e-18 7.50038e-18 -0.211765 5.35882e-24 -6.69308e-24 -0.000290861 6.50025e-16 5.20443e-16 -2.86584e-31 0.001415 
4516 1 0.00201022 -0.00437069 0.00619346 0 0 0 -1.07234e-18 1.28016e-18 -0.211765 9.56921e-25 -1.14237e-24 -0.000290861 4.69481e-18 3.93266e-18 -1.24822e-32 0.001415 
5818 1 0.0744051 0.00953964 0.00570291 0 0 0 2.3687e-19 -2.27671e-19 -0.211765 -2.11374e-25 2.03166e-25 -0.000290861 -2.53199e-19 -2.63429e-19 -1.71794e-34 0.001415 
6447 1 -0.0515136 0.0117203 0.00601585 0 0 0 -1.10178e-18 1.34222e-18 -0.211765 9.8319e-25 -1.19776e-24 -0.000290861 4.42267e-18 3.63039e-18 -1.382e-32 0.001415 
4347 1 0.0446345 0.0124385 0.00677262 0 0 0 -7.28306e-19 -2.55985e-19 -0.211765 6.49916e-25 2.28433e-25 -0.000290861 -2.6852e-19 7.63968e-19 -3.25106e-35 0.001415 
9996 1 -0.0293411 0.0177597 0.00672728 0 0 0 -1.75262e-18 -1.67427e-18 -0.211765 1.56398e-24 1.49407e-24 -0.000290861 -7.58366e-18 7.93854e-18 1.07772e-32 0.001415 
4221 1 0.00751144 0.0235905 0.00608571 0 0 0 3.08448e-20 -2.27963e-19 -0.211765 -2.75248e-26 2.03426e-25 -0.000290861 4.14656e-19 5.61056e-20 1.08556e-34 0.001415 
3550 1 0.0375782 0.0284832 0.00684077 0 0 0 -1.07716e-18 6.30149e-18 -0.211765 9.61223e-25 -5.62324e-24 -0.000290861 3.71286e-17 6.34667e-18 -1.16606e-32 0.001415 
2814 1 0.0624335 0.0274639 0.00614363 0 0 0 1.4242e-19 7.22626e-19 -0.211765 -1.27091e-25 -6.44847e-25 -0.000290861 1.17366e-18 -2.31312e-19 1.9578e-33 0.001415 
8777 1 0.0130109 0.0334818 0.0059606 0 0 0 3.96839e-18 -6.67865e-18 -0.211765 -3.54125e-24 5.9598e-24 -0.000290861 -4.38808e-16 -2.60735e-16 3.60248e-31 0.001415 
4641 1 -0.00200478 0.0474767 0.00526518 0 0 0 -2.10649e-18 1.13425e-18 -0.211765 1.87976e-24 -1.01217e-24 -0.000290861 5.34893e-18 9.93383e-18 -2.46549e-33 0.001415 
5122 1 -0.00838197 -0.0644234 0.00830739 0 0 0 7.15013e-19 2.51682e-19 -0.211765 -6.72245e-21 -2.36628e-21 -0.000290861 2.7192e-17 -7.72507e-17 -5.44861e-31 0.001415 
8780 1 0.0123897 -0.0385353 0.00865072 0 0 0 1.22771e-17 5.60073e-18 -0.211765 2.99498e-19 1.36629e-19 -0.000290861 -9.07967e-16 1.99031e-15 1.65021e-30 0.001415 
166 1 0.0235813 -0.0390227 0.00726683 0 0 0 -5.13358e-19 -6.85207e-18 -0.211765 -1.65376e-20 -2.20737e-19 -0.000290861 3.06465e-17 -2.29604e-18 2.00617e-30 0.001415 
1407 1 0.0135434 -0.0200891 0.00746487 0 0 0 -6.80117e-19 -1.98969e-19 -0.211765 6.06914e-25 1.77554e-25 -0.000290861 -4.80087e-19 1.64103e-18 -6.54907e-34 0.001415 
8589 1 -0.0402517 -0.0187189 0.00757183 0 0 0 5.78208e-20 -7.63601e-19 -0.211765 -5.15973e-26 6.81412e-25 -0.000290861 3.63295e-18 2.75091e-19 -1.53637e-32 0.001415 
5438 1 0.0249608 -0.0142584 0.00761216 0 0 0 1.16993e-18 -2.22303e-18 -0.211765 -1.044e-24 1.98376e-24 -0.000290861 -4.66986e-16 -2.45763e-16 -3.02925e-31 0.001415 
2100 1 -0.012979 -0.0106864 0.00767948 0 0 0 2.11247e-18 3.83285e-19 -0.211765 -1.8851e-24 -3.42031e-25 -0.000290861 2.96332e-18 -1.63323e-17 7.00628e-32 0.001415 
9889 1 -0.0544321 -0.00468185 0.00817164 0 0 0 -9.12046e-19 1.13913e-18 -0.211765 8.1388e-25 -1.01652e-24 -0.000290861 -6.00749e-18 -4.80991e-18 -3.2022e-34 0.001415 
4517 1 0.00302288 -0.0055796 0.00854335 0 0 0 1.07234e-18 -1.28016e-18 -0.211765 -9.56921e-25 1.14237e-24 -0.000290861 4.69481e-18 3.93266e-18 -1.24822e-32 0.001415 
7477 1 0.00556963 0.00632744 0.00841224 0 0 0 0 0 -0.211765 0 0 -0.000290861 0 0 0 0.001415 
6446 1 -0.0505093 0.0104969 0.0083618 0 0 0 -6.33159e-19 7.71336e-19 -0.211765 -4.24566e-20 5.17221e-20 -0.000290861 -2.49082e-18 -2.04462e-18 1.75923e-31 0.001415 
5819 1 0.0733204 0.0105822 0.00809985 0 0 0 -2.3687e-19 2.27671e-19 -0.211765 2.11374e-25 -2.03166e-25 -0.000290861 -2.53199e-19 -2.63429e-19 -1.71794e-34 0.001415 
4368 1 0.0417993 0.0124877 0.00864065 0 0 0 0 0 -0.211765 0 0 -0.000290861 0 0 0 0.001415 
1281 1 -0.00910888 0.0220965 0.00714186 0 0 0 -7.20063e-19 -2.66733e-19 -0.211765 6.4256e-25 2.38023e-25 -0.000290861 -8.98036e-19 2.42431e-18 -9.39175e-34 0.001415 
4220 1 0.00732219 0.0249892 0.00853862 0 0 0 6.66932e-19 -4.92906e-18 -0.211765 1.72265e-20 -1.27315e-19 -0.000290861 -4.84501e-17 -6.55559e-18 -1.97331e-33 0.001415 
2813 1 0.0621842 0.0261988 0.00866282 0 0 0 5.22405e-19 2.65064e-18 -0.211765 1.66199e-20 8.43282e-20 -0.000290861 -2.71599e-17 5.35286e-18 -4.39845e-32 0.001415 
8776 1 0.0132433 0.0330907 0.00875379 0 0 0 -2.03787e-19 3.42965e-19 -0.211765 -1.01084e-20 1.70121e-20 -0.000290861 -8.08499e-18 -4.80402e-18 9.3413e-32 0.001415 
3969 1 -0.0266131 0.0377733 0.0081591 0 0 0 -6.97513e-18 2.18215e-17 -0.211765 -1.67579e-19 5.24264e-19 -0.000290861 -1.85776e-15 -5.93826e-16 9.10633e-31 0.001415 
7875 1 -0.0151895 0.0366812 0.00856003 0 0 0 1.86406e-18 2.20489e-18 -0.211765 4.48439e-20 5.30434e-20 -0.000290861 9.77999e-17 -8.2682e-17 -5.53718e-32 0.001415 
484 1 0.0153265 0.0412785 0.00723128 0 0 0 2.85388e-18 -2.41895e-18 -0.211765 -2.54671e-24 2.15859e-24 -0.000290861 -1.26419e-17 -1.4915e-17 1.11468e-32 0.001415 
4097 1 0.0483957 0.0416236 0.00723928 0 0 0 -4.176e-18 1.41993e-18 -0.211765 -1.35364e-19 4.60267e-20 -0.000290861 -6.99069e-17 -2.05595e-16 2.91068e-31 0.001415 
4640 1 -0.000842548 0.0468509 0.00776848 0 0 0 8.05466e-19 -4.33708e-19 -0.211765 -1.23548e-20 6.6525e-21 -0.000290861 -1.69444e-17 -3.14685e-17 -7.08669e-32 0.001415 
7350 1 0.0388042 0.0484249 0.00747235 0 0 0 -4.44044e-21 -7.50918e-20 -0.211765 3.9625e-27 6.70094e-26 -0.000290861 2.59569e-19 -1.53492e-20 3.67278e-36 0.001415 
6406 1 -0.013834 -0.0547628 0.00995912 0 0 0 6.97489e-18 -2.03345e-18 -0.211765 1.67893e-19 -4.89473e-20 -0.000290861 -6.6174e-17 -2.26982e-16 -1.1808e-30 0.001415 
4747 1 -0.048396 -0.0516837 0.0107479 0 0 0 -2.07194e-17 3.02941e-18 -0.211765 -5.00613e-19 7.31953e-20 -0.000290861 -1.36026e-16 -9.3034e-16 -3.29205e-31 0.001415 
8904 1 0.00698378 -0.051284 0.0102673 0 0 0 0 0 -0.211765 0 0 -0.000290861 0 0 0 0.001415 
9219 1 -0.0350531 -0.0474779 0.00903101 0 0 0 0 0 -0.211765 0 0 -0.000290861 0 0 0 0.001415 
8295 1 0.0424827 -0.0477148 0.00929872 0 0 0 0 0 -0.211765 0 0 -0.000290861 0 0 0 0.001415 
165 1 0.0235443 -0.0395164 0.0100532 0 0 0 5.00097e-20 6.67507e-19 -0.211765 5.1966e-21 6.93618e-20 -0.000290861 1.68029e-16 -1.25888e-17 4.9474e-30 0.001415 
6551 1 -0.00658842 -0.0296093 0.00954192 0 0 0 1.32052e-18 -2.14026e-19 -0.211765 5.09397e-20 -8.25613e-21 -0.000290861 -1.04376e-17 -6.43991e-17 4.28203e-33 0.001415 
9787 1 -0.0202299 -0.023698 0.0103571 0 0 0 -2.93001e-18 -3.64338e-18 -0.211765 -7.12692e-20 -8.86211e-20 -0.000290861 -1.07219e-16 8.6226e-17 -4.48448e-31 0.001415 
1406 1 0.0148736 -0.0197 0.00993229 0 0 0 6.80117e-19 1.98969e-19 -0.211765 -6.06914e-25 -1.77554e-25 -0.000290861 -4.80087e-19 1.64103e-18 -6.54907e-34 0.001415 
8588 1 -0.0403296 -0.0176897 0.0102069 0 0 0 1.89593e-18 -2.50383e-17 -0.211765 5.80311e-20 -7.66379e-19 -0.000290861 1.32354e-15 1.0022e-16 6.7491e-30 0.001415 
8820 1 0.00980992 -0.0172644 0.0105347 0 0 0 0 0 -0.211765 0 0 -0.000290861 0 0 0 0.001415 
3529 1 0.0670132 -0.0166749 0.0108347 0 0 0 0 0 -0.211765 0 0 -0.000290861 0 0 0 0.001415 
4473 1 -0.0215554 -0.0144106 0.0103114 0 0 0 0 0 -0.211765 0 0 -0.000290861 0 0 0 0.001415 
5437 1 0.0244153 -0.0132218 0.0101883 0 0 0 3.79757e-18 -7.21595e-18 -0.211765 1.3836e-19 -2.62905e-19 -0.000290861 4.47044e-16 2.35268e-16 9.84242e-31 0.001415 
2099 1 -0.0146787 -0.0109948 0.00992106 0 0 0 7.82348e-19 1.41949e-19 -0.211765 7.03677e-20 1.27674e-20 -0.000290861 1.18134e-17 -6.51092e-17 1.11588e-31 0.001415 
3528 1 0.0516347 -0.000942708 0.00962333 0 0 0 -7.79769e-18 -3.54639e-18 -0.211765 -1.87424e-19 -8.52404e-20 -0.000290861 -1.32532e-16 2.91407e-16 2.16751e-30 0.001415 
2457 1 0.0227749 0.00368251 0.00994631 0 0 0 0 0 -0.211765 0 0 -0.000290861 0 0 0 0.001415 
6445 1 -0.0495051 0.00927345 0.0107078 0 0 0 -2.44799e-20 2.98223e-20 -0.211765 -2.3222e-21 2.82898e-21 -0.000290861 -5.02414e-17 -4.12412e-17 3.3946e-31 0.001415 
4431 1 -0.0620527 0.012605 0.0107023 0 0 0 -1.40707e-17 3.00582e-18 -0.211765 -4.67181e-19 9.98003e-20 -0.000290861 -3.37532e-16 -1.58004e-15 -7.90709e-30 0.001415 
4346 1 0.0459771 0.0129104 0.00921879 0 0 0 -4.1415e-18 -1.45566e-18 -0.211765 -1.17241e-19 -4.12078e-20 -0.000290861 -5.90709e-17 1.68063e-16 -2.9546e-31 0.001415 
5820 1 0.0722357 0.0116248 0.0104968 0 0 0 3.92049e-18 -3.76824e-18 -0.211765 9.43419e-20 -9.06783e-20 -0.000290861 -1.47561e-16 -1.53523e-16 -1.09715e-30 0.001415 
9995 1 -0.0283179 0.0187371 0.00917813 0 0 0 1.75262e-18 1.67427e-18 -0.211765 -1.56398e-24 -1.49407e-24 -0.000290861 -7.58366e-18 7.93854e-18 1.07772e-32 0.001415 
1280 1 -0.00826091 0.0224106 0.0098235 0 0 0 7.20063e-19 2.66733e-19 -0.211765 -6.4256e-25 -2.38023e-25 -0.000290861 -8.98036e-19 2.42431e-18 -9.39175e-34 0.001415 
3551 1 0.0378271 0.027027 0.00925453 0 0 0 1.07716e-18 -6.30149e-18 -0.211765 -9.61223e-25 5.62324e-24 -0.000290861 3.71286e-17 6.34667e-18 -1.16606e-32 0.001415 
3968 1 -0.0261983 0.0364757 0.0106396 0 0 0 6.97513e-18 -2.18215e-17 -0.211765 1.67579e-19 -5.24264e-19 -0.000290861 -1.85776e-15 -5.93826e-16 9.10633e-31 0.001415 
9745 1 -0.0323504 0.0411674 0.00994594 0 0 0 0 0 -0.211765 0 0 -0.000290861 0 0 0 0.001415 
485 1 0.0142511 0.04219 0.00968517 0 0 0 -2.85388e-18 2.41895e-18 -0.211765 2.54671e-24 -2.15859e-24 -0.000290861 -1.26419e-17 -1.4915e-17 1.11468e-32 0.001415 
4098 1 0.0474587 0.0419422 0.00989056 0 0 0 1.50483e-19 -5.11674e-20 -0.211765 3.89728e-20 -1.32516e-20 -0.000290861 -4.39053e-18 -1.29125e-17 -1.17438e-31 0.001415 
4639 1 0.000319678 0.0462251 0.0102718 0 0 0 -5.66707e-18 3.05147e-18 -0.211765 -1.56625e-19 8.43357e-20 -0.000290861 1.23868e-16 2.30043e-16 -8.39127e-31 0.001415 
7349 1 0.0388392 0.0490157 0.0102398 0 0 0 -3.08928e-19 -5.22425e-18 -0.211765 -1.1687e-20 -1.97638e-19 -0.000290861 -5.01686e-16 2.96664e-17 -6.75769e-31 0.001415 
3318 1 0.0108764 -0.0748018 0.0123289 0 0 0 0 0 -0.211765 0 0 -0.000290861 0 0 0 0.001415 
5121 1 -0.0078553 -0.064238 0.0110818 0 0 0 -3.77221e-18 -1.32781e-18 -0.211765 -1.47689e-19 -5.19863e-20 -0.000290861 -2.53823e-16 7.21096e-16 1.68579e-29 0.001415 
6407 1 -0.0157638 -0.0542001 0.0119512 0 0 0 -6.97489e-18 2.03345e-18 -0.211765 -1.67893e-19 4.89473e-20 -0.000290861 -6.6174e-17 -2.26982e-16 -1.1808e-30 0.001415 
4748 1 -0.0463698 -0.05198 0.0127013 0 0 0 1.14532e-17 -1.6746e-18 -0.211765 1.62588e-19 -2.37722e-20 -0.000290861 -4.34725e-16 -2.97326e-15 3.57853e-30 0.001415 
8903 1 0.00719176 -0.0530399 0.012477 0 0 0 -9.01063e-19 7.60719e-18 -0.211765 -3.76784e-20 3.18098e-19 -0.000290861 -1.54588e-15 -1.83108e-16 1.40707e-29 0.001415 
8421 1 -0.0125515 -0.050364 0.0121544 0 0 0 0 0 -0.211765 0 0 -0.000290861 0 0 0 0.001415 
5040 1 0.0412118 -0.051077 0.0117315 0 0 0 0 0 -0.211765 0 0 -0.000290861 0 0 0 0.001415 
9218 1 -0.0344149 -0.0491301 0.0112383 0 0 0 -2.66773e-18 6.90534e-18 -0.211765 -1.10207e-19 2.85268e-19 -0.000290861 -1.09302e-15 -4.22265e-16 -3.03669e-30 0.001415 
8294 1 0.0417911 -0.0460756 0.0114995 0 0 0 0 0 -0.211765 0 0 -0.000290861 0 0 0 0.001415 
8781 1 0.0111727 -0.0390904 0.0111447 0 0 0 -1.2392e-17 -5.65314e-18 -0.211765 -2.99498e-19 -1.36629e-19 -0.000290861 -9.07559e-16 1.98941e-15 1.65071e-30 0.001415 
7141 1 -0.0440609 -0.0300013 0.012692 0 0 0 0 0 -0.211765 0 0 -0.000290861 0 0 0 0.001415 
6550 1 -0.00716818 -0.0295154 0.0123103 0 0 0 -2.11471e-18 3.42744e-19 -0.211765 -5.0939e-20 8.25601e-21 -0.000290861 -9.96908e-18 -6.15085e-17 4.48614e-33 0.001415 
9788 1 -0.0191042 -0.0222982 0.0125439 0 0 0 1.8984e-20 2.36061e-20 -0.211765 -7.30866e-20 -9.08808e-20 -0.000290861 1.31817e-15 -1.06007e-15 1.67761e-29 0.001415 
1405 1 0.0162037 -0.0193109 0.0123997 0 0 0 -1.28182e-17 -3.75e-18 -0.211765 -4.49286e-19 -1.31439e-19 -0.000290861 4.10009e-16 -1.40149e-15 5.81897e-30 0.001415 
8819 1 0.00974619 -0.0192248 0.0125748 0 0 0 5.58667e-19 1.71828e-17 -0.211765 1.85211e-20 5.69651e-19 -0.000290861 -7.684e-16 2.4983e-17 -1.16872e-29 0.001415 
4472 1 -0.0211077 -0.0159411 0.0126493 0 0 0 -6.76891e-18 2.31381e-17 -0.211765 -2.06458e-19 7.05731e-19 -0.000290861 -3.27357e-15 -9.57665e-16 -1.77197e-29 0.001415 
4389 1 -0.00210167 -0.0164576 0.0113414 0 0 0 1.60594e-18 -7.82878e-19 -0.211765 7.87873e-20 -3.84079e-20 -0.000290861 -1.9747e-16 -4.05076e-16 -3.72959e-32 0.001415 
2098 1 -0.0163785 -0.0113032 0.0121626 0 0 0 -2.89482e-18 -5.25234e-19 -0.211765 -7.03658e-20 -1.27671e-20 -0.000290861 8.85003e-18 -4.87769e-17 4.15253e-32 0.001415 
4518 1 0.00403554 -0.00678852 0.0108932 0 0 0 -8.83945e-18 1.05525e-17 -0.211765 -2.89125e-19 3.45157e-19 -0.000290861 -1.06234e-15 -8.89885e-16 -3.24942e-29 0.001415 
9888 1 -0.0548111 -0.00420847 0.0109359 0 0 0 1.95308e-18 -2.43937e-18 -0.211765 8.40616e-20 -1.04992e-19 -0.000290861 -4.13205e-16 -3.30833e-16 -6.2384e-30 0.001415 
3527 1 0.053278 -0.000195356 0.0118028 0 0 0 7.79769e-18 3.54639e-18 -0.211765 1.87424e-19 8.52404e-20 -0.000290861 -1.32532e-16 2.91407e-16 2.16751e-30 0.001415 
4852 1 -0.0576017 0.00160357 0.0125638 0 0 0 4.1277e-18 6.77269e-18 -0.211765 1.6801e-19 2.75668e-19 -0.000290861 -3.40551e-16 2.07553e-16 2.86543e-29 0.001415 
2456 1 0.0231999 0.00341526 0.0127314 0 0 0 -1.46687e-16 9.22474e-17 -0.211765 -2.5999e-18 1.63501e-18 -0.000290861 -4.44585e-16 -7.06955e-16 -1.08549e-30 0.001415 
1470 1 -0.0541433 0.00552442 0.0111834 0 0 0 1.0275e-17 9.90155e-18 -0.211765 3.50881e-19 3.38128e-19 -0.000290861 -1.17566e-15 1.22001e-15 4.76264e-29 0.001415 
7478 1 0.0063252 0.00556124 0.0110297 0 0 0 0 0 -0.211765 0 0 -0.000290861 0 0 0 0.001415 
5545 1 -0.0302182 0.00727945 0.0113238 0 0 0 0 0 -0.211765 0 0 -0.000290861 0 0 0 0.001415 
4367 1 0.0426483 0.0117219 0.0112294 0 0 0 -4.24897e-18 3.83288e-18 -0.211765 -1.8297e-19 1.65052e-19 -0.000290861 2.13259e-17 2.3641e-17 4.39709e-30 0.001415 
4345 1 0.0473197 0.0133822 0.011665 0 0 0 4.86981e-18 1.71164e-18 -0.211765 1.1724e-19 4.12075e-20 -0.000290861 -5.88023e-17 1.67299e-16 -2.95428e-31 0.001415 
9994 1 -0.0272948 0.0197145 0.011629 0 0 0 -9.48271e-18 -9.0588e-18 -0.211765 -3.25218e-19 -3.1068e-19 -0.000290861 9.34783e-16 -9.78526e-16 1.29347e-29 0.001415 
1279 1 -0.00741294 0.0227247 0.0125051 0 0 0 -1.1269e-17 -4.17439e-18 -0.211765 -3.80937e-19 -1.41111e-19 -0.000290861 -8.71684e-17 2.35317e-16 -5.5008e-30 0.001415 
2812 1 0.0619348 0.0249338 0.011182 0 0 0 8.58981e-19 4.3584e-18 -0.211765 4.50401e-20 2.2853e-19 -0.000290861 3.49002e-16 -6.87835e-17 -1.55592e-29 0.001415 
4219 1 0.00713294 0.0263879 0.0109915 0 0 0 6.0313e-19 -4.45752e-18 -0.211765 3.19283e-20 -2.35971e-19 -0.000290861 7.03108e-16 9.51349e-17 -1.8446e-30 0.001415 
3552 1 0.038076 0.0255707 0.0116683 0 0 0 -5.5583e-19 3.25166e-18 -0.211765 -2.70593e-20 1.583e-19 -0.000290861 -7.3979e-16 -1.26458e-16 1.25595e-29 0.001415 
9955 1 0.0480973 0.0295036 0.0119637 0 0 0 0 0 -0.211765 0 0 -0.000290861 0 0 0 0.001415 
6216 1 -0.023401 0.0310553 0.011061 0 0 0 -1.17679e-18 -5.47156e-18 -0.211765 -2.87492e-20 -1.33671e-19 -0.000290861 -1.15542e-16 2.485e-17 -3.71734e-31 0.001415 
8775 1 0.0134757 0.0326995 0.011547 0 0 0 -2.97646e-19 5.00927e-19 -0.211765 -2.43361e-20 4.09568e-20 -0.000290861 3.1236e-16 1.85601e-16 -1.67605e-30 0.001415 
7874 1 -0.0157052 0.0360712 0.0112749 0 0 0 -1.86406e-18 -2.20489e-18 -0.211765 -4.48439e-20 -5.30434e-20 -0.000290861 9.77999e-17 -8.2682e-17 -5.53718e-32 0.001415 
4099 1 0.0465216 0.0422608 0.0125418 0 0 0 -1.61007e-18 5.4746e-19 -0.211765 -3.89715e-20 1.32512e-20 -0.000290861 -2.86977e-18 -8.43997e-18 -1.15976e-31 0.001415 
9746 1 -0.0326219 0.0429159 0.0121546 0 0 0 1.48522e-18 -9.56537e-18 -0.211765 5.84754e-20 -3.76602e-19 -0.000290861 1.69325e-15 2.62912e-16 -1.2797e-29 0.001415 
486 1 0.0131757 0.0431015 0.0121391 0 0 0 1.48014e-17 -1.25457e-17 -0.211765 4.67782e-19 -3.96491e-19 -0.000290861 2.09161e-15 2.46769e-15 -2.87614e-30 0.001415 
8316 1 0.0241447 0.055508 0.0127067 0 0 0 0 0 -0.211765 0 0 -0.000290861 0 0 0 0.001415 
6048 1 -0.0014895 0.0671831 0.0115542 0 0 0 -8.7332e-18 -5.24797e-19 -0.211765 -3.52254e-19 -2.11677e-20 -0.000290861 4.22178e-17 -7.02551e-16 1.46389e-30 0.001415 
3317 1 0.00879117 -0.0741345 0.014122 0 0 0 4.39789e-16 -1.40739e-16 -0.211765 1.36836e-17 -4.37895e-18 -0.000290861 6.31839e-17 1.97441e-16 -1.44507e-29 0.001415 
4537 1 0.0348065 -0.0668743 0.0141 0 0 0 1.43703e-16 -2.79852e-16 -0.211765 4.49842e-18 -8.76038e-18 -0.000290861 4.45699e-15 2.28865e-15 -3.19091e-29 0.001415 
5120 1 -0.00732864 -0.0640527 0.0138561 0 0 0 -1.7528e-16 -6.16979e-17 -0.211765 -5.52911e-18 -1.94623e-18 -0.000290861 9.06111e-16 -2.5742e-15 1.85045e-29 0.001415 
4749 1 -0.0443437 -0.0522762 0.0146547 0 0 0 -3.21854e-16 4.70587e-17 -0.211765 -1.0484e-17 1.53288e-18 -0.000290861 4.25903e-16 2.91293e-15 -4.91812e-30 0.001415 
6408 1 -0.0176936 -0.0536375 0.0139432 0 0 0 4.72045e-16 -1.37619e-16 -0.211765 1.47863e-17 -4.31077e-18 -0.000290861 5.08608e-16 1.74456e-15 1.19172e-28 0.001415 
9217 1 -0.0337766 -0.0507822 0.0134455 0 0 0 -1.49026e-16 3.8575e-16 -0.211765 -4.72345e-18 1.22265e-17 -0.000290861 -1.21232e-15 -4.68354e-16 1.45153e-28 0.001415 
5039 1 0.0393096 -0.0515993 0.0137607 0 0 0 4.30247e-16 1.18137e-16 -0.211765 1.35665e-17 3.72509e-18 -0.000290861 -2.99334e-16 1.09015e-15 2.77812e-29 0.001415 
8420 1 -0.0130316 -0.0490822 0.0146313 0 0 0 1.42618e-16 -3.8082e-16 -0.211765 4.51984e-18 -1.20689e-17 -0.000290861 2.56486e-15 9.60551e-16 3.20993e-29 0.001415 
8293 1 0.0410995 -0.0444363 0.0137003 0 0 0 1.87649e-16 -4.44762e-16 -0.211765 5.85026e-18 -1.38662e-17 -0.000290861 -3.97512e-15 -1.67714e-15 7.37846e-29 0.001415 
8782 1 0.00995582 -0.0396456 0.0136386 0 0 0 3.20503e-16 1.46212e-16 -0.211765 1.03158e-17 4.70601e-18 -0.000290861 1.02307e-15 -2.24261e-15 -3.14738e-29 0.001415 
164 1 0.0235073 -0.0400101 0.0128395 0 0 0 1.1748e-17 1.56807e-16 -0.211765 3.70842e-19 4.94983e-18 -0.000290861 -2.50393e-15 1.87595e-16 6.18139e-30 0.001415 
1765 1 -0.00582286 -0.0341936 0.0143934 0 0 0 3.66662e-16 -1.14742e-16 -0.211765 1.17549e-17 -3.67856e-18 -0.000290861 -1.14482e-15 -3.65829e-15 -3.94819e-29 0.001415 
2898 1 -0.0015393 -0.0260351 0.0146656 0 0 0 2.67485e-16 -5.28041e-17 -0.211765 8.31732e-18 -1.64192e-18 -0.000290861 5.62586e-16 2.84984e-15 -9.06554e-30 0.001415 
1113 1 0.057839 -0.0250229 0.0135222 0 0 0 4.01171e-16 2.05819e-16 -0.211765 1.25077e-17 6.41703e-18 -0.000290861 5.26555e-16 -1.02633e-15 -1.62357e-28 0.001415 
2604 1 -0.0264828 -0.0239558 0.0143902 0 0 0 3.77342e-16 -1.64293e-17 -0.211765 1.18999e-17 -5.18114e-19 -0.000290861 -1.80691e-16 -4.15005e-15 1.00933e-29 0.001415 
8818 1 0.00968245 -0.0211851 0.0146148 0 0 0 1.3236e-17 4.07097e-16 -0.211765 4.22654e-19 1.29995e-17 -0.000290861 -1.4627e-15 4.75569e-17 -1.33083e-29 0.001415 
3530 1 0.0663652 -0.0174708 0.013472 0 0 0 2.54292e-16 3.12321e-16 -0.211765 7.87445e-18 9.67138e-18 -0.000290861 -2.62285e-15 2.13552e-15 -1.05716e-28 0.001415 
8587 1 -0.0404076 -0.0166605 0.012842 0 0 0 2.19414e-17 -2.89766e-16 -0.211765 5.97956e-19 -7.89681e-18 -0.000290861 3.44867e-15 2.61138e-16 1.06112e-30 0.001415 
4388 1 -0.00265555 -0.0161876 0.0141035 0 0 0 1.79097e-16 -8.73075e-17 -0.211765 5.6226e-18 -2.74095e-18 -0.000290861 1.2098e-15 2.4817e-15 -6.20235e-30 0.001415 
2097 1 -0.0180782 -0.0116116 0.0144042 0 0 0 4.36901e-16 7.9271e-17 -0.211765 1.3791e-17 2.50223e-18 -0.000290861 6.01863e-16 -3.31716e-15 -7.38576e-29 0.001415 
5436 1 0.0238697 -0.0121851 0.0127645 0 0 0 -1.59675e-18 3.03406e-18 -0.211765 1.74455e-20 -3.31491e-20 -0.000290861 7.87231e-16 4.14299e-16 -1.55606e-29 0.001415 
4519 1 0.0050482 -0.00799743 0.0132431 0 0 0 -2.0281e-16 2.42115e-16 -0.211765 -4.4889e-18 5.35885e-18 -0.000290861 -1.12425e-15 -9.41744e-16 9.23462e-30 0.001415 
9887 1 -0.0551901 -0.00373509 0.0137002 0 0 0 1.25678e-16 -1.5697e-16 -0.211765 3.95539e-18 -4.94022e-18 -0.000290861 2.217e-15 1.77505e-15 -6.45536e-30 0.001415 
4853 1 -0.0586257 -7.65915e-05 0.0145978 0 0 0 2.2606e-16 3.70917e-16 -0.211765 7.00159e-18 1.14881e-17 -0.000290861 -3.07707e-15 1.87536e-15 4.74023e-29 0.001415 
9744 1 -0.0476714 0.00124731 0.0134844 0 0 0 2.02027e-18 2.30126e-18 -0.211765 9.221e-20 1.05035e-19 -0.000290861 -9.54203e-17 8.37694e-17 2.82976e-29 0.001415 
3403 1 0.0399954 0.00144601 0.0136193 0 0 0 -3.7203e-16 1.76053e-17 -0.211765 -1.1911e-17 5.63654e-19 -0.000290861 -6.52305e-17 -1.37843e-15 2.52888e-30 0.001415 
3526 1 0.0549212 0.000551996 0.0139823 0 0 0 -4.41582e-16 -2.00831e-16 -0.211765 -1.38964e-17 -6.32006e-18 -0.000290861 -1.69328e-15 3.72313e-15 -2.35081e-28 0.001415 
3843 1 -0.0432547 0.00201405 0.0142048 0 0 0 3.52622e-16 2.40263e-16 -0.211765 1.10149e-17 7.50515e-18 -0.000290861 1.72168e-16 -2.52682e-16 1.14173e-28 0.001415 
6238 1 0.0476834 0.00358837 0.0137403 0 0 0 4.50943e-16 -2.90144e-16 -0.211765 1.38117e-17 -8.88666e-18 -0.000290861 3.35123e-16 5.20849e-16 -8.11535e-29 0.001415 
1469 1 -0.0554428 0.00427207 0.0133633 0 0 0 2.97213e-16 2.8641e-16 -0.211765 5.28011e-18 5.0882e-18 -0.000290861 4.33585e-16 -4.49939e-16 -1.02186e-28 0.001415 
7479 1 0.00708078 0.00479504 0.0136471 0 0 0 -2.36151e-16 2.39472e-16 -0.211765 -7.48257e-18 7.58779e-18 -0.000290861 -2.4896e-15 -2.45508e-15 -7.26196e-29 0.001415 
6444 1 -0.0485008 0.00805 0.0130537 0 0 0 -4.76713e-18 5.80749e-18 -0.211765 -2.12725e-19 2.59149e-19 -0.000290861 -1.32162e-15 -1.08487e-15 -3.90546e-29 0.001415 
5546 1 -0.0286421 0.00814112 0.0135107 0 0 0 -4.4841e-16 -2.45152e-16 -0.211765 -1.40604e-17 -7.68703e-18 -0.000290861 -2.11551e-15 3.86949e-15 -1.24764e-28 0.001415 
7897 1 0.0202104 0.0106666 0.0129065 0 0 0 2.61639e-18 1.24713e-17 -0.211765 9.31809e-20 4.44157e-19 -0.000290861 -2.22118e-16 4.65988e-17 1.79473e-29 0.001415 
4366 1 0.0434972 0.010956 0.0138182 0 0 0 -2.66915e-16 2.40777e-16 -0.211765 -8.32483e-18 7.5096e-18 -0.000290861 -1.86142e-15 -2.06349e-15 1.83989e-29 0.001415 
4430 1 -0.0607358 0.0123237 0.0131914 0 0 0 -3.19285e-16 6.82064e-17 -0.211765 -1.02697e-17 2.19384e-18 -0.000290861 -1.97428e-16 -9.2419e-16 1.98612e-29 0.001415 
5821 1 0.071151 0.0126674 0.0128937 0 0 0 -3.92049e-18 3.76824e-18 -0.211765 -9.43419e-20 9.06783e-20 -0.000290861 -1.47561e-16 -1.53523e-16 -1.09715e-30 0.001415 
4344 1 0.0486622 0.0138541 0.0141111 0 0 0 -3.99073e-16 -1.40266e-16 -0.211765 -1.26363e-17 -4.4414e-18 -0.000290861 5.3772e-16 -1.52987e-15 9.01668e-29 0.001415 
5629 1 -0.00809486 0.0186934 0.0139845 0 0 0 3.90209e-16 6.82617e-18 -0.211765 1.2517e-17 2.18968e-19 -0.000290861 9.96534e-17 -5.69656e-15 6.79974e-30 0.001415 
9993 1 -0.0262716 0.020692 0.0140798 0 0 0 -2.48478e-16 -2.3737e-16 -0.211765 -8.00432e-18 -7.64651e-18 -0.000290861 -1.08193e-15 1.13256e-15 5.00484e-29 0.001415 
3553 1 0.038325 0.0241144 0.014082 0 0 0 -5.84466e-17 3.41918e-16 -0.211765 -1.88564e-18 1.10311e-17 -0.000290861 5.00603e-16 8.55718e-17 2.57069e-29 0.001415 
2811 1 0.0616855 0.0236687 0.0137012 0 0 0 7.67323e-17 3.89333e-16 -0.211765 2.40904e-18 1.22233e-17 -0.000290861 -4.34026e-15 8.55406e-16 -3.33054e-29 0.001415 
4218 1 0.00694369 0.0277865 0.0134444 0 0 0 4.96176e-17 -3.66706e-16 -0.211765 1.58136e-18 -1.16873e-17 -0.000290861 -8.92014e-16 -1.20695e-16 8.75093e-30 0.001415 
9956 1 0.047731 0.0274693 0.0138966 0 0 0 7.73096e-17 4.29361e-16 -0.211765 2.4477e-18 1.3594e-17 -0.000290861 -1.4949e-15 2.69168e-16 1.39981e-29 0.001415 
6007 1 0.0347873 0.0296881 0.0136665 0 0 0 1.17738e-16 1.31923e-16 -0.211765 3.74574e-18 4.197e-18 -0.000290861 -2.10816e-15 1.88149e-15 1.73348e-29 0.001415 
8774 1 0.0137081 0.0323084 0.0143402 0 0 0 -7.83723e-17 1.31898e-16 -0.211765 -2.4733e-18 4.16247e-18 -0.000290861 -2.06859e-15 -1.22913e-15 2.88489e-30 0.001415 
6215 1 -0.0229502 0.0331509 0.0129087 0 0 0 -6.73201e-20 -3.13009e-19 -0.211765 -2.50941e-20 -1.16677e-19 -0.000290861 1.04371e-15 -2.24475e-16 -8.11272e-30 0.001415 
3967 1 -0.0257836 0.0351781 0.0131202 0 0 0 -1.25483e-16 3.92569e-16 -0.211765 -2.1635e-18 6.76843e-18 -0.000290861 -2.25682e-15 -7.21383e-16 1.25871e-29 0.001415 
7873 1 -0.0162209 0.0354611 0.0139899 0 0 0 1.71625e-16 2.03006e-16 -0.211765 5.43754e-18 6.43176e-18 -0.000290861 -4.06333e-15 3.43522e-15 3.05195e-30 0.001415 
6847 1 -0.0500743 0.0395872 0.0141465 0 0 0 -4.26644e-16 1.84021e-16 -0.211765 -1.30294e-17 5.61988e-18 -0.000290861 2.00729e-15 4.6538e-15 -1.07251e-28 0.001415 
487 1 0.0121003 0.044013 0.014593 0 0 0 2.55525e-16 -2.16583e-16 -0.211765 8.16356e-18 -6.91943e-18 -0.000290861 4.30267e-16 5.07631e-16 2.53883e-29 0.001415 
9747 1 -0.0328934 0.0446643 0.0143632 0 0 0 6.77171e-17 -4.36123e-16 -0.211765 2.11415e-18 -1.36159e-17 -0.000290861 -7.29986e-16 -1.13345e-16 -2.76412e-30 0.001415 
4638 1 0.00148191 0.0455993 0.0127751 0 0 0 4.1089e-18 -2.21246e-18 -0.211765 2.83434e-20 -1.52617e-20 -0.000290861 -1.31287e-16 -2.43821e-16 -3.41359e-30 0.001415 
7348 1 0.0388741 0.0496065 0.0130072 0 0 0 -1.17809e-17 -1.99225e-16 -0.211765 -3.69501e-19 -6.2486e-18 -0.000290861 3.05377e-15 -1.8058e-16 -2.63097e-30 0.001415 
8315 1 0.0261215 0.0546907 0.0145595 0 0 0 -4.27428e-16 1.76711e-16 -0.211765 -1.31774e-17 5.44789e-18 -0.000290861 -7.53002e-16 -1.82136e-15 1.73689e-28 0.001415 
4831 1 0.0293284 0.0560787 0.013176 0 0 0 3.58609e-16 -1.99348e-16 -0.211765 7.0228e-18 -3.90392e-18 -0.000290861 -9.4571e-16 -1.70125e-15 -1.00437e-28 0.001415 
6909 1 0.00964204 0.0590336 0.0132101 0 0 0 4.24078e-17 -2.55518e-17 -0.211765 1.18323e-18 -7.1293e-19 -0.000290861 2.29754e-15 3.81317e-15 -3.95972e-29 0.001415 
6047 1 -2.16486e-05 0.0672713 0.0139722 0 0 0 -4.30339e-16 -2.586e-17 -0.211765 -1.34661e-17 -8.09208e-19 -0.000290861 1.25973e-16 -2.09633e-15 -3.7069e-30 0.001415 
7455 1 0.00864732 0.0657086 0.0141185 0 0 0 -1.794e-17 4.25428e-16 -0.211765 -5.73258e-19 1.35942e-17 -0.000290861 -1.18912e-15 -5.01441e-17 -1.12646e-29 0.001415 
8757 1 0.00829498 0.0765507 0.013565 0 0 0 0 0 -0.211765 0 0 -0.000290861 0 0 0 0.001415 
3316 1 0.00670592 -0.0734672 0.0159152 0 0 0 -4.39789e-16 1.40739e-16 -0.211765 -1.36836e-17 4.37895e-18 -0.000290861 6.31839e-17 1.97441e-16 -1.44507e-29 0.001415 
2499 1 0.0564696 -0.0568217 0.0160621 0 0 0 3.8103e-18 -8.71766e-18 -0.211765 9.29238e-20 -2.12602e-19 -0.000290861 -1.47294e-16 -6.43791e-17 -2.91235e-31 0.001415 
8902 1 0.00739974 -0.0547957 0.0146866 0 0 0 -5.15152e-17 4.34915e-16 -0.211765 -1.6067e-18 1.35645e-17 -0.000290861 -2.3388e-16 -2.77028e-17 2.60138e-29 0.001415 
4054 1 -0.0359786 -0.0521436 0.0163487 0 0 0 0 0 -0.211765 0 0 -0.000290861 0 0 0 0.001415 
9216 1 -0.0331383 -0.0524344 0.0156527 0 0 0 1.46693e-16 -3.7971e-16 -0.211765 4.65821e-18 -1.20576e-17 -0.000290861 1.26884e-15 4.90188e-16 9.41878e-29 0.001415 
6409 1 -0.0196234 -0.0530749 0.0159353 0 0 0 -4.72045e-16 1.37619e-16 -0.211765 -1.47863e-17 4.31077e-18 -0.000290861 5.08608e-16 1.74456e-15 1.19172e-28 0.001415 
5038 1 0.0374074 -0.0521216 0.0157899 0 0 0 -3.9849e-16 -1.09417e-16 -0.211765 -1.26266e-17 -3.46702e-18 -0.000290861 -6.25882e-17 2.27942e-16 5.4728e-29 0.001415 
8292 1 0.0404079 -0.0427971 0.0159011 0 0 0 -1.82862e-16 4.33417e-16 -0.211765 -5.6699e-18 1.34387e-17 -0.000290861 -4.41439e-15 -1.86246e-15 9.19712e-29 0.001415 
163 1 0.0234703 -0.0405039 0.0156259 0 0 0 -1.17473e-17 -1.56797e-16 -0.211765 -3.70818e-19 -4.9495e-18 -0.000290861 -2.00746e-15 1.50399e-16 7.09789e-30 0.001415 
8783 1 0.00873888 -0.0402008 0.0161326 0 0 0 -3.1503e-16 -1.43715e-16 -0.211765 -1.00864e-17 -4.60135e-18 -0.000290861 9.21138e-16 -2.01918e-15 -2.10064e-29 0.001415 
1766 1 -0.00794199 -0.0335305 0.016148 0 0 0 -3.39902e-16 1.06368e-16 -0.211765 -1.09635e-17 3.43091e-18 -0.000290861 -1.02829e-15 -3.28593e-15 -1.25887e-29 0.001415 
7142 1 -0.0430179 -0.0310366 0.0151106 0 0 0 -2.84312e-16 2.82207e-16 -0.211765 -9.0821e-18 9.01488e-18 -0.000290861 1.43477e-15 1.44547e-15 -1.36797e-28 0.001415 
6549 1 -0.00774795 -0.0294214 0.0150787 0 0 0 2.05959e-16 -3.33812e-17 -0.211765 6.46834e-18 -1.04837e-18 -0.000290861 4.80246e-16 2.96308e-15 2.50124e-30 0.001415 
1112 1 0.0563793 -0.0257718 0.0158282 0 0 0 -4.01171e-16 -2.05819e-16 -0.211765 -1.25077e-17 -6.41703e-18 -0.000290861 5.26555e-16 -1.02633e-15 -1.62357e-28 0.001415 
2603 1 -0.028804 -0.0238547 0.0160059 0 0 0 -3.77342e-16 1.64293e-17 -0.211765 -1.18999e-17 5.18114e-19 -0.000290861 -1.80691e-16 -4.15005e-15 1.00933e-29 0.001415 