ITEM: TIMESTEP
160000
ITEM: NUMBER OF ATOMS
10248
ITEM: BOX BOUNDS ff ff ff
-0.2 0.2
-0.2 0.2
-0.01 0.5
ITEM: ATOMS id type x y z ix iy iz vx vy vz fx fy fz omegax omegay omegaz radius 
168 1 0.0236702 -0.0378364 0.00141657 0 0 0 0.032616 0.435343 0.0116933 -4.32971e-08 -5.7791e-07 -0.000291065 -307.752 23.0569 2.92783e-12 0.001415 
5124 1 -0.00943529 -0.0647942 0.0023155 0 0 0 -1.07554e-17 -3.78587e-18 -0.231371 1.00056e-23 3.52195e-24 -0.000290834 2.43535e-16 -6.91867e-16 1.49149e-32 0.001415 
9891 1 -0.0536741 -0.00562861 0.00219997 0 0 0 7.12612e-18 -8.90041e-18 -0.231371 -6.62935e-24 8.27996e-24 -0.000290834 6.62923e-16 5.3077e-16 -2.89618e-31 0.001415 
8778 1 0.0127785 0.033873 0.00272428 0 0 0 -4.29726e-18 7.23213e-18 -0.231371 3.9977e-24 -6.72798e-24 -0.000290834 -4.43915e-16 -2.6377e-16 3.68614e-31 0.001415 
5123 1 -0.00890863 -0.0646088 0.00508988 0 0 0 9.81904e-18 3.45627e-18 -0.231371 -9.13456e-24 -3.21534e-24 -0.000290834 2.42086e-16 -6.87749e-16 1.77191e-32 0.001415 
167 1 0.0236284 -0.0383942 0.00419519 0 0 0 0.0225726 0.301289 0.0188988 -2.41144e-08 -3.21868e-07 -0.00029107 400.683 -30.0193 1.61883e-11 0.001415 
5439 1 0.0255064 -0.015295 0.00459285 0 0 0 6.69728e-19 -1.27258e-18 -0.231371 -6.23041e-25 1.18387e-24 -0.000290834 -5.23881e-18 -2.75705e-18 2.22087e-33 0.001415 
9890 1 -0.0540531 -0.00515523 0.00496424 0 0 0 -6.21413e-18 7.76134e-18 -0.231371 5.78094e-24 -7.2203e-24 -0.000290834 6.56916e-16 5.2596e-16 -2.89938e-31 0.001415 
4096 1 0.0493328 0.0413049 0.00414486 0 0 0 1.42877e-17 -4.85812e-18 -0.231371 1.21315e-19 -4.12499e-20 -0.000290834 -6.04204e-16 -1.77696e-15 4.07808e-30 0.001415 
4641 1 -0.00200478 0.0474767 0.00482205 0 0 0 -2.10636e-18 1.13418e-18 -0.231371 1.95953e-24 -1.05512e-24 -0.000290834 5.34835e-18 9.93275e-18 -2.46522e-33 0.001415 
166 1 0.0235759 -0.0390948 0.0069413 0 0 0 -0.0114054 -0.152234 -0.0569355 9.10052e-09 1.2147e-07 -0.000291004 -76.3178 5.71774 -1.31807e-11 0.001415 
8779 1 0.0136066 -0.0379801 0.00571364 0 0 0 1.14878e-19 5.24064e-20 -0.231371 -1.06869e-25 -4.87532e-26 -0.000290834 -4.07796e-19 8.93909e-19 -5.00737e-34 0.001415 
6552 1 -0.00600865 -0.0297033 0.0063304 0 0 0 7.94132e-19 -1.2871e-19 -0.231371 -7.38773e-25 1.19738e-25 -0.000290834 -4.68454e-19 -2.89033e-18 -2.04085e-34 0.001415 
1407 1 0.0135434 -0.0200891 0.00702173 0 0 0 -6.80075e-19 -1.98957e-19 -0.231371 6.32667e-25 1.85088e-25 -0.000290834 -4.80035e-19 1.64085e-18 -6.54836e-34 0.001415 
4516 1 0.00201022 -0.00437069 0.00575033 0 0 0 -1.07227e-18 1.28008e-18 -0.231371 9.97526e-25 -1.19085e-24 -0.000290834 4.6943e-18 3.93224e-18 -1.24808e-32 0.001415 
5818 1 0.0744051 0.00953964 0.00525977 0 0 0 2.36855e-19 -2.27657e-19 -0.231371 -2.20344e-25 2.11787e-25 -0.000290834 -2.53171e-19 -2.634e-19 -1.71775e-34 0.001415 
6447 1 -0.0515136 0.0117203 0.00557271 0 0 0 -1.10171e-18 1.34214e-18 -0.231371 1.02491e-24 -1.24858e-24 -0.000290834 4.42219e-18 3.63e-18 -1.38185e-32 0.001415 
4347 1 0.0446345 0.0124385 0.00632949 0 0 0 -7.28262e-19 -2.5597e-19 -0.231371 6.77494e-25 2.38126e-25 -0.000290834 -2.68491e-19 7.63885e-19 -3.25071e-35 0.001415 
9996 1 -0.0293411 0.0177597 0.00628414 0 0 0 -1.75251e-18 -1.67417e-18 -0.231371 1.63035e-24 1.55746e-24 -0.000290834 -7.58284e-18 7.93767e-18 1.0776e-32 0.001415 
1281 1 -0.00910888 0.0220965 0.00669873 0 0 0 -7.20019e-19 -2.66716e-19 -0.231371 6.69826e-25 2.48123e-25 -0.000290834 -8.97939e-19 2.42405e-18 -9.39073e-34 0.001415 
4221 1 0.00751144 0.0235905 0.00564257 0 0 0 3.08429e-20 -2.27949e-19 -0.231371 -2.86928e-26 2.12058e-25 -0.000290834 4.14611e-19 5.60995e-20 1.08544e-34 0.001415 
3550 1 0.0375782 0.0284832 0.00639763 0 0 0 -1.0771e-18 6.30111e-18 -0.231371 1.00201e-24 -5.86185e-24 -0.000290834 3.71246e-17 6.34599e-18 -1.16594e-32 0.001415 
2814 1 0.0624335 0.0274639 0.0057005 0 0 0 1.42411e-19 7.22582e-19 -0.231371 -1.32484e-25 -6.7221e-25 -0.000290834 1.17353e-18 -2.31287e-19 1.95759e-33 0.001415 
8777 1 0.0130109 0.0334818 0.00551747 0 0 0 4.09749e-18 -6.89592e-18 -0.231371 -3.81185e-24 6.4152e-24 -0.000290834 -4.43141e-16 -2.6331e-16 3.68493e-31 0.001415 
484 1 0.0153265 0.0412785 0.00678814 0 0 0 2.85371e-18 -2.4188e-18 -0.231371 -2.65478e-24 2.25018e-24 -0.000290834 -1.26406e-17 -1.49134e-17 1.11456e-32 0.001415 
4097 1 0.0483957 0.0416236 0.00679614 0 0 0 -1.28281e-17 4.36185e-18 -0.231371 -1.21317e-19 4.12503e-20 -0.000290834 -6.05725e-16 -1.78143e-15 4.07662e-30 0.001415 
7350 1 0.0388042 0.0484249 0.00702921 0 0 0 -4.44016e-21 -7.50872e-20 -0.231371 4.13064e-27 6.98529e-26 -0.000290834 2.59541e-19 -1.53475e-20 3.67239e-36 0.001415 
5122 1 -0.00838197 -0.0644234 0.00786425 0 0 0 2.10111e-20 7.39585e-21 -0.231371 -1.585e-20 -5.57914e-21 -0.000290834 8.15861e-17 -2.31781e-16 -6.48363e-30 0.001415 
9219 1 -0.0350531 -0.0474779 0.00858787 0 0 0 0 0 -0.231371 0 0 -0.000290834 0 0 0 0.001415 
8295 1 0.0424827 -0.0477148 0.00885559 0 0 0 0 0 -0.231371 0 0 -0.000290834 0 0 0 0.001415 
8780 1 0.0123897 -0.0385353 0.00820759 0 0 0 3.1731e-17 1.44755e-17 -0.231371 2.81971e-19 1.28633e-19 -0.000290834 -2.64844e-15 5.8055e-15 -6.37771e-30 0.001415 
8589 1 -0.0402517 -0.0187189 0.0071287 0 0 0 5.78172e-20 -7.63554e-19 -0.231371 -5.37868e-26 7.10327e-25 -0.000290834 3.63256e-18 2.75062e-19 -1.5362e-32 0.001415 
5438 1 0.0249608 -0.0142584 0.00716903 0 0 0 1.7898e-16 -3.40088e-16 -0.231371 3.61675e-18 -6.87237e-18 -0.000290834 -5.54748e-15 -2.91949e-15 -2.26089e-29 0.001415 
2100 1 -0.012979 -0.0106864 0.00723635 0 0 0 4.03726e-16 7.32517e-17 -0.231371 8.25689e-18 1.49812e-18 -0.000290834 -1.12576e-15 6.20462e-15 8.87008e-29 0.001415 
9889 1 -0.0544321 -0.00468185 0.0077285 0 0 0 2.69899e-18 -3.37099e-18 -0.231371 6.79821e-19 -8.49086e-19 -0.000290834 -2.36729e-16 -1.89537e-16 -6.15712e-32 0.001415 
4517 1 0.00302288 -0.0055796 0.00810021 0 0 0 1.07227e-18 -1.28008e-18 -0.231371 -9.97526e-25 1.19085e-24 -0.000290834 4.6943e-18 3.93224e-18 -1.24808e-32 0.001415 
7477 1 0.00556963 0.00632744 0.00796911 0 0 0 0 0 -0.231371 0 0 -0.000290834 0 0 0 0.001415 
6446 1 -0.0505093 0.0104969 0.00791867 0 0 0 -3.44802e-18 4.2005e-18 -0.231371 -4.13895e-20 5.04221e-20 -0.000290834 1.23165e-16 1.01102e-16 1.90308e-30 0.001415 
5819 1 0.0733204 0.0105822 0.00765671 0 0 0 -2.36821e-19 2.27624e-19 -0.231371 2.20312e-25 -2.11757e-25 -0.000290834 -2.38314e-19 -2.47942e-19 9.03004e-35 0.001415 
4368 1 0.0417993 0.0124877 0.00819752 0 0 0 0 0 -0.231371 0 0 -0.000290834 0 0 0 0.001415 
4346 1 0.0459771 0.0129104 0.00877566 0 0 0 -1.17585e-17 -4.13289e-18 -0.231371 -1.13753e-19 -3.99818e-20 -0.000290834 -4.40085e-16 1.25209e-15 -2.22357e-30 0.001415 
9995 1 -0.0283179 0.0187371 0.00873499 0 0 0 1.75251e-18 1.67417e-18 -0.231371 -1.63035e-24 -1.55746e-24 -0.000290834 -7.58284e-18 7.93767e-18 1.0776e-32 0.001415 
4220 1 0.00732219 0.0249892 0.00809548 0 0 0 1.86152e-18 -1.37578e-17 -0.231371 1.84942e-20 -1.36684e-19 -0.000290834 -1.54683e-15 -2.09296e-16 1.09568e-30 0.001415 
2813 1 0.0621842 0.0261988 0.00821968 0 0 0 1.71102e-18 8.68155e-18 -0.231371 1.94014e-20 9.8441e-20 -0.000290834 1.188e-15 -2.34138e-16 1.12691e-30 0.001415 
3551 1 0.0378271 0.027027 0.00881139 0 0 0 1.0771e-18 -6.30111e-18 -0.231371 -1.00201e-24 5.86185e-24 -0.000290834 3.71246e-17 6.34599e-18 -1.16594e-32 0.001415 
8776 1 0.0132433 0.0330907 0.00831065 0 0 0 -9.36004e-19 1.57526e-18 -0.231371 -1.2397e-20 2.08637e-20 -0.000290834 3.36576e-16 1.9999e-16 9.86312e-31 0.001415 
3969 1 -0.0266131 0.0377733 0.00771596 0 0 0 -1.62636e-17 5.08803e-17 -0.231371 -1.53591e-19 4.80503e-19 -0.000290834 -5.98473e-15 -1.91299e-15 7.48723e-30 0.001415 
7875 1 -0.0151895 0.0366812 0.00811689 0 0 0 4.79975e-18 5.67735e-18 -0.231371 4.54595e-20 5.37715e-20 -0.000290834 8.12468e-16 -6.86877e-16 1.09414e-30 0.001415 
4640 1 -0.000842548 0.0468509 0.00732534 0 0 0 -4.75991e-16 2.56301e-16 -0.231371 -9.43479e-18 5.08022e-18 -0.000290834 -9.75159e-16 -1.81103e-15 3.15133e-29 0.001415 
5121 1 -0.0078553 -0.064238 0.0106386 0 0 0 -2.46914e-17 -8.69129e-18 -0.231371 -5.0909e-19 -1.79198e-19 -0.000290834 -2.63724e-16 7.49222e-16 1.36999e-28 0.001415 
6406 1 -0.013834 -0.0547628 0.00951599 0 0 0 1.77798e-17 -5.18351e-18 -0.231371 1.5275e-19 -4.45325e-20 -0.000290834 -4.90254e-16 -1.68161e-15 4.18493e-30 0.001415 
4747 1 -0.048396 -0.0516837 0.0103048 0 0 0 -5.3163e-17 7.77304e-18 -0.231371 -4.63424e-19 6.77579e-20 -0.000290834 -3.62936e-17 -2.48227e-16 -1.36066e-30 0.001415 
8904 1 0.00698378 -0.051284 0.00982414 0 0 0 0 0 -0.231371 0 0 -0.000290834 0 0 0 0.001415 
9218 1 -0.0344149 -0.0491301 0.0107951 0 0 0 -1.30528e-17 3.37867e-17 -0.231371 -1.90286e-19 4.92548e-19 -0.000290834 -6.6742e-15 -2.57843e-15 -9.32042e-29 0.001415 
8781 1 0.0111727 -0.0390904 0.0107015 0 0 0 -1.61681e-17 -7.37578e-18 -0.231371 4.05734e-19 1.85094e-19 -0.000290834 -4.01228e-15 8.79511e-15 -3.9172e-29 0.001415 
165 1 0.0235428 -0.039536 0.00973994 0 0 0 -0.00268467 -0.0358337 -0.0122546 1.49321e-09 1.99307e-08 -0.000291043 -10.1226 0.758386 -1.93324e-11 0.001415 
6551 1 -0.00658842 -0.0296093 0.00909878 0 0 0 4.59105e-18 -7.44101e-19 -0.231371 4.60659e-20 -7.4662e-21 -0.000290834 -9.84395e-17 -6.07364e-16 2.43462e-31 0.001415 
9787 1 -0.0202299 -0.023698 0.00991393 0 0 0 -7.76366e-18 -9.65387e-18 -0.231371 -7.5992e-20 -9.44936e-20 -0.000290834 -5.99123e-16 4.81816e-16 -1.60256e-29 0.001415 
1406 1 0.0148736 -0.0197 0.00948915 0 0 0 6.80075e-19 1.98957e-19 -0.231371 -6.32667e-25 -1.85088e-25 -0.000290834 -4.80035e-19 1.64085e-18 -6.54836e-34 0.001415 
8588 1 -0.0403296 -0.0176897 0.00976377 0 0 0 7.34652e-18 -9.70207e-17 -0.231371 1.07163e-19 -1.41523e-18 -0.000290834 1.40887e-14 1.06681e-15 1.18483e-28 0.001415 
4389 1 -0.00210167 -0.0164576 0.0108982 0 0 0 1.60974e-17 -7.84728e-18 -0.231371 3.986e-19 -1.94313e-19 -0.000290834 9.23962e-17 1.89535e-16 -4.39433e-29 0.001415 
8820 1 0.00980992 -0.0172644 0.0100916 0 0 0 0 0 -0.231371 0 0 -0.000290834 0 0 0 0.001415 
3529 1 0.0670132 -0.0166749 0.0103915 0 0 0 0 0 -0.231371 0 0 -0.000290834 0 0 0 0.001415 
4473 1 -0.0215554 -0.0144106 0.00986823 0 0 0 0 0 -0.231371 0 0 -0.000290834 0 0 0 0.001415 
5437 1 0.0244153 -0.0132218 0.0097452 0 0 0 -1.58233e-16 3.00665e-16 -0.231371 -3.24446e-18 6.16497e-18 -0.000290834 -1.04658e-15 -5.50791e-16 1.24375e-29 0.001415 
2099 1 -0.0146787 -0.0109948 0.00947792 0 0 0 -3.84071e-16 -6.96855e-17 -0.231371 -7.75237e-18 -1.40658e-18 -0.000290834 -7.58586e-16 4.18094e-15 5.43086e-29 0.001415 
4518 1 0.00403554 -0.00678852 0.0104501 0 0 0 -3.50435e-17 4.18348e-17 -0.231371 -4.77311e-19 5.69813e-19 -0.000290834 -1.3042e-14 -1.09248e-14 -3.97316e-28 0.001415 
9888 1 -0.0548111 -0.00420847 0.0104928 0 0 0 1.10754e-17 -1.3833e-17 -0.231371 -3.597e-19 4.49259e-19 -0.000290834 6.40613e-17 5.12907e-17 4.58576e-29 0.001415 
3528 1 0.0516347 -0.000942708 0.00918019 0 0 0 -1.98232e-17 -9.01558e-18 -0.231371 -1.69432e-19 -7.70576e-20 -0.000290834 -9.81917e-16 2.15901e-15 -5.77117e-30 0.001415 
2457 1 0.0227749 0.00368251 0.00950317 0 0 0 0 0 -0.231371 0 0 -0.000290834 0 0 0 0.001415 
1470 1 -0.0541433 0.00552442 0.0107403 0 0 0 4.16401e-17 4.01266e-17 -0.231371 5.71264e-19 5.505e-19 -0.000290834 -1.36208e-14 1.41346e-14 -1.41873e-28 0.001415 
7478 1 0.0063252 0.00556124 0.0105865 0 0 0 -9.01391e-18 9.14066e-18 -0.231371 -3.9346e-19 3.98993e-19 -0.000290834 -5.08042e-16 -5.00997e-16 -8.42082e-29 0.001415 
5545 1 -0.0302182 0.00727945 0.0108807 0 0 0 0 0 -0.231371 0 0 -0.000290834 0 0 0 0.001415 
6445 1 -0.0495051 0.00927345 0.0102646 0 0 0 -5.28437e-19 6.4376e-19 -0.231371 -1.48906e-20 1.81402e-20 -0.000290834 7.43075e-16 6.09961e-16 3.67545e-30 0.001415 
4431 1 -0.0620527 0.012605 0.0102591 0 0 0 -5.58282e-17 1.19262e-17 -0.231371 -7.39719e-19 1.58021e-19 -0.000290834 -2.88638e-15 -1.35116e-14 -1.64341e-30 0.001415 
4367 1 0.0426483 0.0117219 0.0107863 0 0 0 -3.20545e-17 2.89155e-17 -0.231371 -6.98348e-19 6.29961e-19 -0.000290834 -3.59928e-15 -3.99002e-15 -1.15e-28 0.001415 
5820 1 0.0722357 0.0116248 0.0100537 0 0 0 9.98271e-18 -9.59504e-18 -0.231371 8.55271e-20 -8.22059e-20 -0.000290834 -1.09267e-15 -1.13682e-15 -1.0922e-29 0.001415 
1280 1 -0.00826091 0.0224106 0.00938036 0 0 0 7.20019e-19 2.66716e-19 -0.231371 -6.69826e-25 -2.48123e-25 -0.000290834 -8.97939e-19 2.42405e-18 -9.39073e-34 0.001415 
2812 1 0.0619348 0.0249338 0.0107389 0 0 0 8.71477e-18 4.4218e-17 -0.231371 2.04576e-19 1.038e-18 -0.000290834 -5.77109e-15 1.1374e-15 -2.4239e-29 0.001415 
4219 1 0.00713294 0.0263879 0.0105484 0 0 0 5.72843e-18 -4.23368e-17 -0.231371 1.22032e-19 -9.01895e-19 -0.000290834 9.22624e-15 1.24837e-15 1.51587e-28 0.001415 
6216 1 -0.023401 0.0310553 0.0106178 0 0 0 -3.09071e-18 -1.43704e-17 -0.231371 -2.83954e-20 -1.32026e-19 -0.000290834 -1.07721e-15 2.3168e-16 3.59958e-30 0.001415 
3968 1 -0.0261983 0.0364757 0.0101965 0 0 0 1.62636e-17 -5.08803e-17 -0.231371 1.53591e-19 -4.80503e-19 -0.000290834 -5.98473e-15 -1.91299e-15 7.48723e-30 0.001415 
7874 1 -0.0157052 0.0360712 0.0108318 0 0 0 3.39464e-18 4.01533e-18 -0.231371 3.09011e-19 3.65511e-19 -0.000290834 5.92718e-16 -5.01096e-16 -8.78564e-29 0.001415 
9745 1 -0.0323504 0.0411674 0.0095028 0 0 0 0 0 -0.231371 0 0 -0.000290834 0 0 0 0.001415 
485 1 0.0142511 0.04219 0.00924204 0 0 0 -2.85371e-18 2.4188e-18 -0.231371 2.65478e-24 -2.25018e-24 -0.000290834 -1.26406e-17 -1.49134e-17 1.11456e-32 0.001415 
4098 1 0.0474587 0.0419422 0.00944742 0 0 0 2.72895e-18 -9.27905e-19 -0.231371 4.09989e-20 -1.39405e-20 -0.000290834 -6.9277e-17 -2.03743e-16 -4.50882e-31 0.001415 
4639 1 0.000319678 0.0462251 0.00982864 0 0 0 4.46851e-16 -2.4061e-16 -0.231371 8.8061e-18 -4.7417e-18 -0.000290834 8.65215e-16 1.60684e-15 8.32653e-29 0.001415 
7349 1 0.0388392 0.0490157 0.00979664 0 0 0 -1.69866e-18 -2.87258e-17 -0.231371 -3.09604e-20 -5.23568e-19 -0.000290834 2.07463e-15 -1.2268e-16 -1.62505e-29 0.001415 
3318 1 0.0108764 -0.0748018 0.0118858 0 0 0 0 0 -0.231371 0 0 -0.000290834 0 0 0 0.001415 
6407 1 -0.0157638 -0.0542001 0.011508 0 0 0 -1.77798e-17 5.18351e-18 -0.231371 -1.5275e-19 4.45325e-20 -0.000290834 -4.90254e-16 -1.68161e-15 4.18493e-30 0.001415 
4748 1 -0.0463698 -0.05198 0.0122582 0 0 0 3.80009e-18 -5.55617e-19 -0.231371 -4.05792e-19 5.93315e-20 -0.000290834 -3.62565e-15 -2.47973e-14 7.53424e-29 0.001415 
8903 1 0.00719176 -0.0530399 0.0120338 0 0 0 -5.6972e-18 4.80984e-17 -0.231371 -1.06148e-19 8.96147e-19 -0.000290834 -1.38122e-14 -1.63604e-15 1.06765e-28 0.001415 
8421 1 -0.0125515 -0.050364 0.0117113 0 0 0 4.66962e-18 -1.24688e-17 -0.231371 2.06368e-19 -5.51044e-19 -0.000290834 1.98501e-15 7.43393e-16 -2.85562e-28 0.001415 
5040 1 0.0412118 -0.051077 0.0112884 0 0 0 0 0 -0.231371 0 0 -0.000290834 0 0 0 0.001415 
8294 1 0.0417911 -0.0460756 0.0110564 0 0 0 0 0 -0.231371 0 0 -0.000290834 0 0 0 0.001415 
164 1 0.0235057 -0.0400322 0.0125287 0 0 0 -0.00275488 -0.0367709 0.00894501 1.53215e-09 2.04504e-08 -0.000291055 8.21641 -0.615575 -1.82202e-11 0.001415 
7141 1 -0.0440609 -0.0300013 0.0122489 0 0 0 0 0 -0.231371 0 0 -0.000290834 0 0 0 0.001415 
6550 1 -0.00716818 -0.0295154 0.0118672 0 0 0 -5.38518e-18 8.72811e-19 -0.231371 -4.60651e-20 7.46608e-21 -0.000290834 -9.7971e-17 -6.04474e-16 2.43667e-31 0.001415 
9788 1 -0.0191042 -0.0222982 0.0121008 0 0 0 -2.2539e-17 -2.80265e-17 -0.231371 -6.8838e-19 -8.55979e-19 -0.000290834 1.126e-14 -9.0553e-15 5.64225e-28 0.001415 
1405 1 0.0162037 -0.0193109 0.0119566 0 0 0 -6.9576e-17 -2.03546e-17 -0.231371 -1.3189e-18 -3.85845e-19 -0.000290834 3.87386e-15 -1.32416e-14 -2.96386e-28 0.001415 
8819 1 0.00974619 -0.0192248 0.0121316 0 0 0 2.51857e-18 7.74634e-17 -0.231371 4.01352e-20 1.23443e-18 -0.000290834 -1.57135e-14 5.10894e-16 -1.02878e-28 0.001415 
8587 1 -0.0404076 -0.0166605 0.0123988 0 0 0 5.35685e-17 -7.07444e-16 -0.231371 3.64551e-19 -4.81439e-18 -0.000290834 -2.48845e-15 -1.88428e-16 -4.1498e-29 0.001415 
4472 1 -0.0211077 -0.0159411 0.0122062 0 0 0 -2.6695e-17 9.12512e-17 -0.231371 -3.90357e-19 1.33435e-18 -0.000290834 -2.09729e-14 -6.13551e-15 -2.60671e-28 0.001415 
5436 1 0.0238697 -0.0121851 0.0123214 0 0 0 3.63696e-18 -6.91076e-18 -0.231371 1.23733e-19 -2.35111e-19 -0.000290834 9.45533e-15 4.9761e-15 1.1484e-28 0.001415 
2098 1 -0.0163785 -0.0113032 0.0117195 0 0 0 -1.96553e-17 -3.56623e-18 -0.231371 -5.04521e-19 -9.15398e-20 -0.000290834 3.67176e-16 -2.02369e-15 -3.43922e-29 0.001415 
4519 1 0.0050482 -0.00799743 0.0128 0 0 0 -4.68344e-16 5.59109e-16 -0.231371 -3.4094e-18 4.07013e-18 -0.000290834 1.6406e-16 1.37427e-16 9.16807e-28 0.001415 
3527 1 0.053278 -0.000195356 0.0113597 0 0 0 1.98232e-17 9.01558e-18 -0.231371 1.69432e-19 7.70576e-20 -0.000290834 -9.81917e-16 2.15901e-15 -5.77117e-30 0.001415 
4852 1 -0.0576017 0.00160357 0.0121206 0 0 0 2.5202e-17 4.13512e-17 -0.231371 4.63734e-19 7.60889e-19 -0.000290834 -8.62289e-15 5.25533e-15 2.04871e-28 0.001415 
2456 1 0.0231999 0.00341526 0.0122883 0 0 0 -2.9292e-16 1.84209e-16 -0.231371 -1.88306e-18 1.18421e-18 -0.000290834 1.73457e-15 2.75822e-15 -8.69742e-29 0.001415 
6444 1 -0.0485008 0.00805 0.0126106 0 0 0 -3.70416e-17 4.51254e-17 -0.231371 -8.06272e-19 9.82229e-19 -0.000290834 -1.20282e-14 -9.87344e-15 -8.10317e-28 0.001415 
7897 1 0.0202104 0.0106666 0.0124634 0 0 0 1.32042e-17 6.29395e-17 -0.231371 2.24041e-19 1.06792e-18 -0.000290834 -1.8271e-14 3.83313e-15 -7.25105e-30 0.001415 
4430 1 -0.0607358 0.0123237 0.0127482 0 0 0 -7.00673e-16 1.49679e-16 -0.231371 -4.54677e-18 9.71292e-19 -0.000290834 6.06462e-16 2.83894e-15 -7.92091e-29 0.001415 
4345 1 0.0473197 0.0133822 0.0112218 0 0 0 -3.64164e-18 -1.27997e-18 -0.231371 -5.96839e-19 -2.09777e-19 -0.000290834 7.77593e-16 -2.21234e-15 -6.59999e-29 0.001415 
5821 1 0.071151 0.0126674 0.0124506 0 0 0 -9.98274e-18 9.59508e-18 -0.231371 -8.55271e-20 8.22059e-20 -0.000290834 -1.09269e-15 -1.13684e-15 -1.09223e-29 0.001415 
9994 1 -0.0272948 0.0197145 0.0111858 0 0 0 -5.05906e-17 -4.8329e-17 -0.231371 -9.59736e-19 -9.16833e-19 -0.000290834 1.03889e-14 -1.08751e-14 1.72888e-28 0.001415 
1279 1 -0.00741294 0.0227247 0.012062 0 0 0 -5.42311e-17 -2.00888e-17 -0.231371 -9.24546e-19 -3.42479e-19 -0.000290834 8.3699e-16 -2.25951e-15 -6.37327e-29 0.001415 
3552 1 0.038076 0.0255707 0.0112251 0 0 0 -5.58557e-18 3.26761e-17 -0.231371 -1.38469e-19 8.10056e-19 -0.000290834 -8.19812e-15 -1.40137e-15 1.57409e-28 0.001415 
9955 1 0.0480973 0.0295036 0.0115205 0 0 0 0 0 -0.231371 0 0 -0.000290834 0 0 0 0.001415 
6215 1 -0.0229502 0.0331509 0.0124656 0 0 0 -5.26868e-18 -2.4497e-17 -0.231371 -1.31814e-19 -6.12879e-19 -0.000290834 1.82907e-14 -3.93386e-15 -1.42266e-28 0.001415 
8775 1 0.0134757 0.0326995 0.0111038 0 0 0 -5.86991e-18 9.87883e-18 -0.231371 -1.60701e-19 2.70454e-19 -0.000290834 -5.76581e-18 -3.42599e-18 1.67602e-29 0.001415 
3967 1 -0.0257836 0.0351781 0.012677 0 0 0 -2.52318e-16 7.89367e-16 -0.231371 -1.69054e-18 5.28879e-18 -0.000290834 5.4601e-15 1.7453e-15 -3.83933e-28 0.001415 
4099 1 0.0465216 0.0422608 0.0120987 0 0 0 5.22337e-18 -1.77606e-18 -0.231371 3.70697e-19 -1.26045e-19 -0.000290834 -7.26305e-17 -2.13605e-16 -4.03413e-29 0.001415 
9746 1 -0.0326219 0.0429159 0.0117114 0 0 0 8.59598e-18 -5.53612e-17 -0.231371 1.54535e-19 -9.95259e-19 -0.000290834 1.5141e-14 2.35095e-15 -1.18889e-28 0.001415 
486 1 0.0131757 0.0431015 0.0116959 0 0 0 6.47068e-17 -5.48454e-17 -0.231371 1.05018e-18 -8.90129e-19 -0.000290834 1.37024e-14 1.61661e-14 -1.3243e-28 0.001415 
4638 1 0.00148191 0.0455993 0.0123319 0 0 0 8.49413e-19 -4.57372e-19 -0.231371 -1.53592e-19 8.27026e-20 -0.000290834 -1.64803e-15 -3.06066e-15 3.19094e-28 0.001415 
7348 1 0.0388741 0.0496065 0.0125641 0 0 0 -3.05143e-17 -5.16025e-16 -0.231371 -2.28664e-19 -3.86691e-18 -0.000290834 7.23043e-15 -4.2756e-16 3.89586e-30 0.001415 
8316 1 0.0241447 0.055508 0.0122635 0 0 0 0 0 -0.231371 0 0 -0.000290834 0 0 0 0.001415 
4831 1 0.0293284 0.0560787 0.0127328 0 0 0 7.8722e-16 -4.37609e-16 -0.231371 5.71704e-18 -3.17806e-18 -0.000290834 -1.21865e-14 -2.19225e-14 -9.44287e-28 0.001415 
6909 1 0.00964204 0.0590336 0.0127669 0 0 0 1.43502e-16 -8.64637e-17 -0.231371 1.83214e-18 -1.10391e-18 -0.000290834 2.1962e-14 3.64498e-14 -8.76005e-28 0.001415 
6048 1 -0.0014895 0.0671831 0.0111111 0 0 0 -5.8157e-17 -3.49478e-18 -0.231371 -1.19177e-18 -7.16161e-20 -0.000290834 6.52051e-16 -1.08508e-14 -5.40195e-29 0.001415 
3317 1 0.00879117 -0.0741345 0.0136789 0 0 0 1.1751e-15 -3.76048e-16 -0.231371 2.72117e-18 -8.70811e-19 -0.000290834 -1.20473e-14 -3.76463e-14 -1.40187e-27 0.001415 
4537 1 0.0348065 -0.0668743 0.0136568 0 0 0 4.50717e-16 -8.77742e-16 -0.231371 1.10239e-18 -2.14683e-18 -0.000290834 8.54504e-15 4.38785e-15 2.03859e-29 0.001415 
5120 1 -0.00732864 -0.0640527 0.013413 0 0 0 -5.4464e-16 -1.91712e-16 -0.231371 -7.46234e-19 -2.62672e-19 -0.000290834 2.29216e-15 -6.51189e-15 1.81396e-28 0.001415 
8902 1 0.00739974 -0.0547957 0.0142435 0 0 0 -1.71002e-16 1.44368e-15 -0.231371 -4.5464e-19 3.83828e-18 -0.000290834 1.9028e-14 2.25385e-15 -1.84752e-29 0.001415 
4749 1 -0.0443437 -0.0522762 0.0142116 0 0 0 -1.11929e-15 1.63652e-16 -0.231371 -2.11849e-18 3.09747e-19 -0.000290834 4.91832e-15 3.36384e-14 -1.23443e-28 0.001415 
6408 1 -0.0176936 -0.0536375 0.0135001 0 0 0 1.79923e-15 -5.24547e-16 -0.231371 2.73532e-17 -7.97451e-18 -0.000290834 -1.01094e-14 -3.46761e-14 -1.15454e-27 0.001415 
9217 1 -0.0337766 -0.0507822 0.0130024 0 0 0 -2.95013e-16 7.63633e-16 -0.231371 -1.8367e-18 4.75425e-18 -0.000290834 9.4142e-16 3.63698e-16 9.52904e-28 0.001415 
5039 1 0.0393096 -0.0515993 0.0133176 0 0 0 1.28852e-15 3.53802e-16 -0.231371 1.21785e-17 3.34396e-18 -0.000290834 5.58335e-15 -2.03342e-14 1.27357e-27 0.001415 
8420 1 -0.0130316 -0.0490822 0.0141882 0 0 0 4.68989e-16 -1.25229e-15 -0.231371 1.11544e-18 -2.97846e-18 -0.000290834 -1.13975e-14 -4.26842e-15 1.50295e-27 0.001415 
8293 1 0.0410995 -0.0444363 0.0132572 0 0 0 5.62546e-16 -1.33334e-15 -0.231371 3.56299e-18 -8.44495e-18 -0.000290834 -4.85268e-14 -2.04738e-14 5.1446e-28 0.001415 
8782 1 0.00995582 -0.0396456 0.0131955 0 0 0 1.07394e-15 4.89926e-16 -0.231371 1.91479e-18 8.73517e-19 -0.000290834 1.23893e-14 -2.7158e-14 -9.32488e-28 0.001415 
1765 1 -0.00582286 -0.0341936 0.0139503 0 0 0 1.24856e-15 -3.90722e-16 -0.231371 3.93984e-18 -1.23292e-18 -0.000290834 -1.46153e-14 -4.67036e-14 4.67485e-28 0.001415 
7142 1 -0.0430179 -0.0310366 0.0146674 0 0 0 -9.53517e-16 9.4646e-16 -0.231371 -2.46366e-18 2.44543e-18 -0.000290834 2.30594e-14 2.32313e-14 -9.51386e-29 0.001415 
6549 1 -0.00774795 -0.0294214 0.0146355 0 0 0 6.50101e-16 -1.05366e-16 -0.231371 1.4943e-18 -2.42191e-19 -0.000290834 7.7094e-16 4.75664e-15 7.92186e-29 0.001415 
2898 1 -0.0015393 -0.0260351 0.0142225 0 0 0 8.36272e-16 -1.65088e-16 -0.231371 2.05669e-18 -4.06011e-19 -0.000290834 -4.88986e-16 -2.47701e-15 -6.3602e-29 0.001415 
1113 1 0.057839 -0.0250229 0.0130791 0 0 0 1.283e-15 6.58238e-16 -0.231371 1.3337e-17 6.84249e-18 -0.000290834 8.08033e-15 -1.57497e-14 4.33633e-28 0.001415 
2604 1 -0.0264828 -0.0239558 0.013947 0 0 0 1.34336e-15 -5.84893e-17 -0.231371 1.47928e-17 -6.44072e-19 -0.000290834 -2.12229e-15 -4.87441e-14 -9.99452e-29 0.001415 
7959 1 -0.0480224 -0.0227988 0.014629 0 0 0 -1.31174e-15 8.18167e-16 -0.231371 -4.64492e-18 2.89716e-18 -0.000290834 2.17183e-14 3.48202e-14 2.08485e-27 0.001415 
8818 1 0.00968245 -0.0211851 0.0141717 0 0 0 4.4361e-17 1.36441e-15 -0.231371 1.08395e-19 3.33388e-18 -0.000290834 1.51435e-14 -4.92363e-16 -2.04738e-29 0.001415 
9789 1 -0.0179785 -0.0208985 0.0142877 0 0 0 -9.93073e-16 -1.23485e-15 -0.231371 -2.50781e-18 -3.11838e-18 -0.000290834 -2.74627e-14 2.20856e-14 -4.47206e-28 0.001415 
4471 1 -0.0206599 -0.0174716 0.0145441 0 0 0 -3.35336e-16 1.14627e-15 -0.231371 -5.94099e-19 2.0308e-18 -0.000290834 9.00741e-15 2.63507e-15 3.09563e-29 0.001415 
1404 1 0.0175339 -0.0189217 0.014424 0 0 0 -1.1926e-15 -3.48898e-16 -0.231371 -2.04152e-18 -5.9725e-19 -0.000290834 -3.17005e-15 1.08359e-14 7.38886e-28 0.001415 
3530 1 0.0663652 -0.0174708 0.0130289 0 0 0 7.82096e-16 9.60569e-16 -0.231371 2.13279e-18 2.61949e-18 -0.000290834 5.57368e-15 -4.53809e-15 -9.82081e-28 0.001415 
4388 1 -0.00265555 -0.0161876 0.0136603 0 0 0 5.62235e-16 -2.74083e-16 -0.231371 8.40605e-19 -4.09785e-19 -0.000290834 2.08208e-15 4.27103e-15 4.63805e-29 0.001415 
2097 1 -0.0180782 -0.0116116 0.0139611 0 0 0 1.45102e-15 2.63272e-16 -0.231371 4.12918e-18 7.49194e-19 -0.000290834 7.44104e-15 -4.10112e-14 -1.28894e-27 0.001415 
9887 1 -0.0551901 -0.00373509 0.013257 0 0 0 3.91442e-16 -4.88905e-16 -0.231371 5.49915e-19 -6.86835e-19 -0.000290834 5.91262e-15 4.73395e-15 -1.87451e-30 0.001415 
4853 1 -0.0586257 -7.65915e-05 0.0141547 0 0 0 7.48428e-16 1.22801e-15 -0.231371 1.97845e-18 3.24623e-18 -0.000290834 1.1068e-14 -6.74551e-15 -1.3416e-27 0.001415 
9743 1 -0.0492029 -0.00049722 0.0146599 0 0 0 6.53889e-16 7.44834e-16 -0.231371 1.49863e-18 1.70707e-18 -0.000290834 2.6014e-14 -2.28377e-14 1.03209e-27 0.001415 
9744 1 -0.0476714 0.00124731 0.0130413 0 0 0 1.49752e-17 1.7058e-17 -0.231371 2.99696e-19 3.41379e-19 -0.000290834 -7.22399e-15 6.34194e-15 -6.08721e-29 0.001415 
3403 1 0.0399954 0.00144601 0.0131762 0 0 0 -1.13847e-15 5.38747e-17 -0.231371 -1.06853e-17 5.0565e-19 -0.000290834 1.06908e-15 2.25916e-14 -1.66194e-28 0.001415 
3526 1 0.0549212 0.000551996 0.0135391 0 0 0 -1.44687e-15 -6.58036e-16 -0.231371 -4.33182e-18 -1.97011e-18 -0.000290834 -1.98298e-14 4.36012e-14 -1.37579e-27 0.001415 
3843 1 -0.0432547 0.00201405 0.0137617 0 0 0 1.19395e-15 8.13512e-16 -0.231371 3.58376e-18 2.44184e-18 -0.000290834 1.46454e-14 -2.14943e-14 1.66345e-27 0.001415 
6238 1 0.0476834 0.00358837 0.0132972 0 0 0 1.50383e-15 -9.67589e-16 -0.231371 1.26232e-17 -8.12196e-18 -0.000290834 -2.11857e-14 -3.29269e-14 8.02504e-28 0.001415 
1469 1 -0.0554428 0.00427207 0.0129201 0 0 0 6.12313e-16 5.90058e-16 -0.231371 4.09492e-18 3.94608e-18 -0.000290834 9.79261e-15 -1.0162e-14 -1.22898e-28 0.001415 
7479 1 0.00708078 0.00479504 0.013204 0 0 0 -7.40126e-16 7.50534e-16 -0.231371 -1.23469e-18 1.25206e-18 -0.000290834 2.31854e-15 2.28639e-15 5.49328e-28 0.001415 
5546 1 -0.0286421 0.00814112 0.0130675 0 0 0 -1.07061e-15 -5.85317e-16 -0.231371 -7.97851e-18 -4.36196e-18 -0.000290834 -1.61581e-14 2.95549e-14 -2.55177e-27 0.001415 
7898 1 0.0197791 0.00861083 0.0143599 0 0 0 2.85762e-16 1.36211e-15 -0.231371 7.68079e-19 3.66113e-18 -0.000290834 3.00189e-14 -6.29774e-15 -4.35375e-28 0.001415 
4366 1 0.0434972 0.010956 0.013375 0 0 0 -8.24924e-16 7.44142e-16 -0.231371 -1.29766e-18 1.17058e-18 -0.000290834 4.63427e-15 5.13736e-15 -1.47813e-28 0.001415 
1176 1 0.023371 0.01534 0.0143614 0 0 0 1.76753e-17 1.4977e-15 -0.231371 5.35611e-20 4.53846e-18 -0.000290834 2.11622e-14 -2.49748e-16 -2.76442e-30 0.001415 
4344 1 0.0486622 0.0138541 0.013668 0 0 0 -1.30653e-15 -4.59221e-16 -0.231371 -3.03246e-18 -1.06585e-18 -0.000290834 -5.05e-15 1.43678e-14 9.72981e-28 0.001415 
5629 1 -0.00809486 0.0186934 0.0135413 0 0 0 1.27128e-15 2.22394e-17 -0.231371 1.32585e-17 2.31939e-19 -0.000290834 8.62933e-16 -4.93285e-14 1.63981e-28 0.001415 
9993 1 -0.0262716 0.020692 0.0136367 0 0 0 -8.31195e-16 -7.94038e-16 -0.231371 -1.17647e-18 -1.12388e-18 -0.000290834 -1.65208e-14 1.72939e-14 1.08624e-27 0.001415 
3553 1 0.038325 0.0241144 0.0136389 0 0 0 -1.97557e-16 1.15573e-15 -0.231371 -3.22454e-19 1.88639e-18 -0.000290834 1.90982e-14 3.2646e-15 3.97613e-28 0.001415 
2811 1 0.0616855 0.0236687 0.0132581 0 0 0 2.48172e-16 1.2592e-15 -0.231371 5.13517e-19 2.60554e-18 -0.000290834 5.50694e-15 -1.08534e-15 -3.28452e-28 0.001415 
4218 1 0.00694369 0.0277865 0.0130013 0 0 0 1.43458e-16 -1.06025e-15 -0.231371 6.36666e-19 -4.70538e-18 -0.000290834 -2.22208e-14 -3.00661e-15 8.39218e-29 0.001415 
9956 1 0.047731 0.0274693 0.0134535 0 0 0 2.51328e-16 1.39582e-15 -0.231371 2.69882e-18 1.49887e-17 -0.000290834 1.83174e-14 -3.29818e-15 -7.45831e-29 0.001415 
6007 1 0.0347873 0.0296881 0.0132234 0 0 0 3.79784e-16 4.25539e-16 -0.231371 7.38406e-19 8.27365e-19 -0.000290834 -2.38339e-15 2.12713e-15 1.62525e-29 0.001415 
8774 1 0.0137081 0.0323084 0.013897 0 0 0 -2.44834e-16 4.12047e-16 -0.231371 -3.76512e-19 6.33655e-19 -0.000290834 -4.864e-15 -2.89014e-15 -2.82005e-29 0.001415 
6214 1 -0.0224995 0.0352466 0.0143133 0 0 0 -2.82258e-16 -1.31238e-15 -0.231371 -7.71712e-19 -3.58812e-18 -0.000290834 -3.52725e-14 7.58619e-15 1.06813e-27 0.001415 
7873 1 -0.0162209 0.0354611 0.0135467 0 0 0 5.3723e-16 6.35459e-16 -0.231371 8.6811e-19 1.02684e-18 -0.000290834 -6.92076e-15 5.85095e-15 4.83586e-28 0.001415 
6847 1 -0.0500743 0.0395872 0.0137034 0 0 0 -1.33716e-15 5.76747e-16 -0.231371 -1.38046e-17 5.95423e-18 -0.000290834 2.3309e-14 5.40409e-14 -2.38361e-27 0.001415 
487 1 0.0121003 0.044013 0.0141498 0 0 0 8.59662e-16 -7.28649e-16 -0.231371 1.222e-18 -1.03576e-18 -0.000290834 -9.56634e-15 -1.12864e-14 2.55405e-28 0.001415 
9747 1 -0.0328934 0.0446643 0.0139201 0 0 0 2.23486e-16 -1.43933e-15 -0.231371 5.75738e-19 -3.70796e-18 -0.000290834 -2.35228e-14 -3.6524e-15 1.80995e-28 0.001415 
8988 1 0.0105277 0.0515901 0.0144074 0 0 0 5.1762e-16 -7.32294e-16 -0.231371 1.01692e-18 -1.43867e-18 -0.000290834 -3.03911e-14 -2.14819e-14 -7.22838e-29 0.001415 
8315 1 0.0261215 0.0546907 0.0141164 0 0 0 -1.41407e-15 5.84617e-16 -0.231371 -4.90193e-18 2.0266e-18 -0.000290834 9.91785e-15 2.39893e-14 -4.93189e-28 0.001415 
6908 1 0.00786074 0.0601069 0.0146863 0 0 0 1.09971e-15 -6.62604e-16 -0.231371 2.35389e-18 -1.41828e-18 -0.000290834 -6.33062e-15 -1.05068e-14 1.41863e-27 0.001415 
6047 1 -2.16486e-05 0.0672713 0.013529 0 0 0 -1.39133e-15 -8.36083e-17 -0.231371 -2.99104e-18 -1.79738e-19 -0.000290834 -9.41147e-16 1.56617e-14 1.28103e-28 0.001415 
7455 1 0.00864732 0.0657086 0.0136754 0 0 0 -6.09894e-17 1.4463e-15 -0.231371 -1.86699e-19 4.42739e-18 -0.000290834 1.49496e-14 6.30411e-16 -5.29981e-29 0.001415 
8757 1 0.00829498 0.0765507 0.0131219 0 0 0 0 0 -0.231371 0 0 -0.000290834 0 0 0 0.001415 
3316 1 0.00670592 -0.0734672 0.015472 0 0 0 -9.82623e-16 3.14453e-16 -0.231371 -1.23675e-18 3.95777e-19 -0.000290834 -8.71788e-15 -2.72422e-14 -8.11064e-28 0.001415 