ITEM: TIMESTEP
35000
ITEM: NUMBER OF ATOMS
10248
ITEM: BOX BOUNDS ff ff ff
-0.2 0.2
-0.2 0.2
-0.01 0.5
ITEM: ATOMS id type x y z ix iy iz vx vy vz fx fy fz omegax omegay omegaz radius 
5124 1 -0.00943529 -0.0647942 0.00286329 0 0 0 -7.75681e-18 -2.73037e-18 -0.206863 -2.13796e-19 -7.52555e-20 -0.000290867 1.07561e-16 -3.05574e-16 -2.05329e-32 0.001415 
168 1 0.0236553 -0.0380352 0.00179879 0 0 0 2.48679e-18 3.31926e-17 -0.206863 2.5724e-19 3.43352e-18 -0.000290867 -2.12055e-16 1.58872e-17 -1.65788e-31 0.001415 
9891 1 -0.0536741 -0.00562861 0.00274776 0 0 0 5.14611e-18 -6.42741e-18 -0.206863 1.37791e-19 -1.72098e-19 -0.000290867 2.96554e-16 2.37436e-16 -8.69956e-32 0.001415 
8778 1 0.0127785 0.033873 0.00327207 0 0 0 -3.1082e-18 5.23099e-18 -0.206863 -8.43334e-20 1.4193e-19 -0.000290867 -2.08653e-16 -1.2398e-16 8.06076e-32 0.001415 
167 1 0.0236183 -0.0385289 0.00458514 0 0 0 -2.1807e-18 -2.9107e-17 -0.206863 -2.43121e-19 -3.24507e-18 -0.000290867 -2.15278e-16 1.61286e-17 1.95222e-31 0.001415 
5439 1 0.0255064 -0.015295 0.00514064 0 0 0 6.69779e-19 -1.27268e-18 -0.206863 -5.91338e-25 1.12363e-24 -0.000290867 -5.23952e-18 -2.75743e-18 2.22117e-33 0.001415 
4096 1 0.0493328 0.0413049 0.00469265 0 0 0 3.32554e-18 -1.13076e-18 -0.206863 1.38764e-19 -4.71828e-20 -0.000290867 -1.83952e-17 -5.40999e-17 2.40198e-32 0.001415 
5123 1 -0.00890863 -0.0646088 0.00563767 0 0 0 6.82039e-18 2.40076e-18 -0.206863 2.13797e-19 7.52558e-20 -0.000290867 1.06111e-16 -3.01456e-16 -1.77284e-32 0.001415 
8779 1 0.0136066 -0.0379801 0.00626143 0 0 0 1.14886e-19 5.24105e-20 -0.206863 -1.01431e-25 -4.62724e-26 -0.000290867 -4.07851e-19 8.9403e-19 -5.00805e-34 0.001415 
6552 1 -0.00600865 -0.0297033 0.00687819 0 0 0 7.94193e-19 -1.2872e-19 -0.206863 -7.01181e-25 1.13645e-25 -0.000290867 -4.68517e-19 -2.89072e-18 -2.04113e-34 0.001415 
9890 1 -0.0540531 -0.00515523 0.00551203 0 0 0 -4.23405e-18 5.28826e-18 -0.206863 -1.37791e-19 1.72099e-19 -0.000290867 2.90546e-16 2.32626e-16 -8.73158e-32 0.001415 
4516 1 0.00201022 -0.00437069 0.00629812 0 0 0 -1.07236e-18 1.28018e-18 -0.206863 9.46768e-25 -1.13025e-24 -0.000290867 4.69494e-18 3.93277e-18 -1.24825e-32 0.001415 
5818 1 0.0744051 0.00953964 0.00580757 0 0 0 2.36873e-19 -2.27675e-19 -0.206863 -2.09132e-25 2.01011e-25 -0.000290867 -2.53206e-19 -2.63436e-19 -1.71798e-34 0.001415 
6447 1 -0.0515136 0.0117203 0.0061205 0 0 0 -1.10179e-18 1.34224e-18 -0.206863 9.72758e-25 -1.18505e-24 -0.000290867 4.42279e-18 3.63049e-18 -1.38204e-32 0.001415 
4347 1 0.0446345 0.0124385 0.00687728 0 0 0 -7.28317e-19 -2.55989e-19 -0.206863 6.4302e-25 2.26009e-25 -0.000290867 -2.68527e-19 7.63989e-19 -3.25115e-35 0.001415 
9996 1 -0.0293411 0.0177597 0.00683193 0 0 0 -1.75265e-18 -1.6743e-18 -0.206863 1.54739e-24 1.47821e-24 -0.000290867 -7.58386e-18 7.93875e-18 1.07775e-32 0.001415 
4221 1 0.00751144 0.0235905 0.00619036 0 0 0 3.08452e-20 -2.27966e-19 -0.206863 -2.72328e-26 2.01268e-25 -0.000290867 4.14668e-19 5.61071e-20 1.08559e-34 0.001415 
3550 1 0.0375782 0.0284832 0.00694543 0 0 0 -1.07718e-18 6.30159e-18 -0.206863 9.51024e-25 -5.56358e-24 -0.000290867 3.71296e-17 6.34685e-18 -1.16609e-32 0.001415 
2814 1 0.0624335 0.0274639 0.00624829 0 0 0 1.42422e-19 7.22637e-19 -0.206863 -1.25742e-25 -6.38006e-25 -0.000290867 1.17369e-18 -2.31319e-19 1.95785e-33 0.001415 
8777 1 0.0130109 0.0334818 0.00606526 0 0 0 2.90841e-18 -4.89474e-18 -0.206863 8.43335e-20 -1.4193e-19 -0.000290867 -2.0788e-16 -1.2352e-16 8.04866e-32 0.001415 
4641 1 -0.00200478 0.0474767 0.00536984 0 0 0 -2.10652e-18 1.13427e-18 -0.206863 1.85982e-24 -1.00143e-24 -0.000290867 5.34908e-18 9.9341e-18 -2.46556e-33 0.001415 
5122 1 -0.00838197 -0.0644234 0.00841205 0 0 0 8.18622e-19 2.88152e-19 -0.206863 -5.58281e-21 -1.96513e-21 -0.000290867 8.26588e-18 -2.34828e-17 -1.54505e-31 0.001415 
8780 1 0.0123897 -0.0385353 0.00875538 0 0 0 7.18875e-18 3.27947e-18 -0.206863 3.04199e-19 1.38774e-19 -0.000290867 -3.25107e-16 7.12649e-16 9.37284e-32 0.001415 
166 1 0.0235813 -0.0390227 0.00737149 0 0 0 -2.49864e-19 -3.33507e-18 -0.206863 -1.4119e-20 -1.88454e-19 -0.000290867 -1.95881e-18 1.46754e-19 3.60915e-31 0.001415 
1407 1 0.0135434 -0.0200891 0.00756953 0 0 0 -6.80127e-19 -1.98972e-19 -0.206863 6.00474e-25 1.7567e-25 -0.000290867 -4.801e-19 1.64108e-18 -6.54925e-34 0.001415 
8589 1 -0.0402517 -0.0187189 0.00767649 0 0 0 5.78216e-20 -7.63613e-19 -0.206863 -5.10499e-26 6.74182e-25 -0.000290867 3.63305e-18 2.75099e-19 -1.53641e-32 0.001415 
5438 1 0.0249608 -0.0142584 0.00771682 0 0 0 6.36005e-19 -1.2085e-18 -0.206863 2.60974e-19 -4.95889e-19 -0.000290867 -2.88018e-16 -1.51576e-16 -1.75934e-31 0.001415 
2100 1 -0.012979 -0.0106864 0.00778414 0 0 0 1.76444e-18 3.20139e-19 -0.206863 3.14152e-19 5.69995e-20 -0.000290867 2.33151e-18 -1.28501e-17 4.85529e-32 0.001415 
9889 1 -0.0544321 -0.00468185 0.00827629 0 0 0 -9.1206e-19 1.13915e-18 -0.206863 8.05244e-25 -1.00574e-24 -0.000290867 -6.00766e-18 -4.81004e-18 -3.20229e-34 0.001415 
4517 1 0.00302288 -0.0055796 0.008648 0 0 0 1.07236e-18 -1.28018e-18 -0.206863 -9.46768e-25 1.13025e-24 -0.000290867 4.69494e-18 3.93277e-18 -1.24825e-32 0.001415 
7477 1 0.00556963 0.00632744 0.0085169 0 0 0 0 0 -0.206863 0 0 -0.000290867 0 0 0 0.001415 
6446 1 -0.0505093 0.0104969 0.00846646 0 0 0 8.57827e-20 -1.04503e-19 -0.206863 -4.28611e-20 5.22148e-20 -0.000290867 -6.61486e-18 -5.42987e-18 8.49608e-32 0.001415 
5819 1 0.0733204 0.0105822 0.00820451 0 0 0 -2.36873e-19 2.27675e-19 -0.206863 2.09132e-25 -2.01011e-25 -0.000290867 -2.53206e-19 -2.63436e-19 -1.71798e-34 0.001415 
4368 1 0.0417993 0.0124877 0.00874531 0 0 0 0 0 -0.206863 0 0 -0.000290867 0 0 0 0.001415 
1281 1 -0.00910888 0.0220965 0.00724652 0 0 0 -7.20074e-19 -2.66737e-19 -0.206863 6.35742e-25 2.35498e-25 -0.000290867 -8.9806e-19 2.42437e-18 -9.39201e-34 0.001415 
4220 1 0.00732219 0.0249892 0.00864328 0 0 0 3.76689e-19 -2.78398e-18 -0.206863 1.72247e-20 -1.27301e-19 -0.000290867 -2.09595e-17 -2.83596e-18 5.55515e-34 0.001415 
2813 1 0.0621842 0.0261988 0.00876747 0 0 0 2.44017e-19 1.23812e-18 -0.206863 1.6423e-20 8.3329e-20 -0.000290867 -3.42617e-18 6.75252e-19 -3.73349e-32 0.001415 
8776 1 0.0132433 0.0330907 0.00885845 0 0 0 -3.46517e-20 5.83175e-20 -0.206863 -9.9646e-21 1.67701e-20 -0.000290867 -1.45461e-18 -8.64314e-19 2.00096e-32 0.001415 
3969 1 -0.0266131 0.0377733 0.00826376 0 0 0 -4.11923e-18 1.28869e-17 -0.206863 -1.71271e-19 5.35815e-19 -0.000290867 -6.71777e-16 -2.1473e-16 -1.17528e-32 0.001415 
7875 1 -0.0151895 0.0366812 0.00866469 0 0 0 1.09945e-18 1.30048e-18 -0.206863 4.58907e-20 5.42815e-20 -0.000290867 3.27713e-17 -2.77055e-17 -1.19923e-32 0.001415 
484 1 0.0153265 0.0412785 0.00733594 0 0 0 2.85393e-18 -2.41899e-18 -0.206863 -2.51969e-24 2.13569e-24 -0.000290867 -1.26423e-17 -1.49154e-17 1.11471e-32 0.001415 
4097 1 0.0483957 0.0416236 0.00734393 0 0 0 -1.86593e-18 6.34458e-19 -0.206863 -1.38765e-19 4.71833e-20 -0.000290867 -1.9916e-17 -5.85726e-17 2.25577e-32 0.001415 
4640 1 -0.000842548 0.0468509 0.00787314 0 0 0 2.10652e-18 -1.13427e-18 -0.206863 -1.85982e-24 1.00143e-24 -0.000290867 5.34908e-18 9.9341e-18 -2.46556e-33 0.001415 
7350 1 0.0388042 0.0484249 0.007577 0 0 0 -4.4405e-21 -7.50929e-20 -0.206863 3.92045e-27 6.62984e-26 -0.000290867 2.59576e-19 -1.53496e-20 3.67288e-36 0.001415 
6406 1 -0.013834 -0.0547628 0.0100638 0 0 0 4.11332e-18 -1.19919e-18 -0.206863 1.71699e-19 -5.0057e-20 -0.000290867 -2.21733e-17 -7.6056e-17 -3.14067e-31 0.001415 
4747 1 -0.048396 -0.0516837 0.0108525 0 0 0 -1.22042e-17 1.78439e-18 -0.206863 -5.09948e-19 7.45602e-20 -0.000290867 -6.5384e-17 -4.47188e-16 1.70633e-31 0.001415 
8904 1 0.00698378 -0.051284 0.0103719 0 0 0 0 0 -0.206863 0 0 -0.000290867 0 0 0 0.001415 
9219 1 -0.0350531 -0.0474779 0.00913566 0 0 0 0 0 -0.206863 0 0 -0.000290867 0 0 0 0.001415 
8295 1 0.0424827 -0.0477148 0.00940338 0 0 0 0 0 -0.206863 0 0 -0.000290867 0 0 0 0.001415 
165 1 0.0235443 -0.0395164 0.0101578 0 0 0 -2.11064e-20 -2.81718e-19 -0.206863 3.45839e-21 4.6161e-20 -0.000290867 1.36314e-16 -1.02127e-17 1.50406e-30 0.001415 
6551 1 -0.00658842 -0.0296093 0.00964657 0 0 0 4.52192e-19 -7.32896e-20 -0.206863 5.21025e-20 -8.44458e-21 -0.000290867 -2.69647e-18 -1.6637e-17 5.53232e-33 0.001415 
9787 1 -0.0202299 -0.023698 0.0104617 0 0 0 -1.72139e-18 -2.1405e-18 -0.206863 -7.21809e-20 -8.97547e-20 -0.000290867 -3.71404e-17 2.98684e-17 7.31214e-32 0.001415 
1406 1 0.0148736 -0.0197 0.0100369 0 0 0 6.80127e-19 1.98972e-19 -0.206863 -6.00474e-25 -1.7567e-25 -0.000290867 -4.801e-19 1.64108e-18 -6.54925e-34 0.001415 
8588 1 -0.0403296 -0.0176897 0.0103116 0 0 0 9.87886e-19 -1.30464e-17 -0.206863 4.97543e-20 -6.57073e-19 -0.000290867 -7.92793e-18 -6.00312e-19 7.04747e-31 0.001415 
8820 1 0.00980992 -0.0172644 0.0106394 0 0 0 0 0 -0.206863 0 0 -0.000290867 0 0 0 0.001415 
3529 1 0.0670132 -0.0166749 0.0109393 0 0 0 0 0 -0.206863 0 0 -0.000290867 0 0 0 0.001415 
4473 1 -0.0215554 -0.0144106 0.010416 0 0 0 0 0 -0.206863 0 0 -0.000290867 0 0 0 0.001415 
5437 1 0.0244153 -0.0132218 0.010293 0 0 0 1.99119e-18 -3.78355e-18 -0.206863 -1.21904e-19 2.31636e-19 -0.000290867 6.08289e-17 3.20127e-17 1.78988e-31 0.001415 
2099 1 -0.0146787 -0.0109948 0.0100257 0 0 0 -6.65306e-20 -1.20713e-20 -0.206863 -2.4262e-19 -4.40208e-20 -0.000290867 5.14186e-18 -2.83393e-17 8.09629e-32 0.001415 
3528 1 0.0516347 -0.000942708 0.00972798 0 0 0 -4.60114e-18 -2.0926e-18 -0.206863 -1.91917e-19 -8.72838e-20 -0.000290867 -4.43859e-17 9.75943e-17 5.09117e-31 0.001415 
2457 1 0.0227749 0.00368251 0.010051 0 0 0 0 0 -0.206863 0 0 -0.000290867 0 0 0 0.001415 
6445 1 -0.0495051 0.00927345 0.0108124 0 0 0 9.05018e-22 -1.10252e-21 -0.206863 -7.14099e-22 8.6994e-22 -0.000290867 -1.91196e-17 -1.56945e-17 4.75129e-32 0.001415 
4431 1 -0.0620527 0.012605 0.0108069 0 0 0 -6.97037e-18 1.48903e-18 -0.206863 -3.86701e-19 8.2608e-20 -0.000290867 -7.38342e-17 -3.45629e-16 2.01586e-30 0.001415 
4346 1 0.0459771 0.0129104 0.00932345 0 0 0 -2.14298e-18 -7.53214e-19 -0.206863 -1.19924e-19 -4.2151e-20 -0.000290867 -1.80775e-17 5.14324e-17 -3.3217e-32 0.001415 
5820 1 0.0722357 0.0116248 0.0106014 0 0 0 2.31221e-18 -2.22242e-18 -0.206863 9.65137e-20 -9.27658e-20 -0.000290867 -4.94448e-17 -5.14425e-17 -2.2128e-32 0.001415 
9995 1 -0.0283179 0.0187371 0.00928278 0 0 0 1.75265e-18 1.6743e-18 -0.206863 -1.54739e-24 -1.47821e-24 -0.000290867 -7.58386e-18 7.93875e-18 1.07775e-32 0.001415 
1280 1 -0.00826091 0.0224106 0.00992816 0 0 0 7.20074e-19 2.66737e-19 -0.206863 -6.35742e-25 -2.35498e-25 -0.000290867 -8.9806e-19 2.42437e-18 -9.39201e-34 0.001415 
3551 1 0.0378271 0.027027 0.00935918 0 0 0 1.07718e-18 -6.30159e-18 -0.206863 -9.51024e-25 5.56358e-24 -0.000290867 3.71296e-17 6.34685e-18 -1.16609e-32 0.001415 
3968 1 -0.0261983 0.0364757 0.0107443 0 0 0 4.11923e-18 -1.28869e-17 -0.206863 1.71271e-19 -5.35815e-19 -0.000290867 -6.71777e-16 -2.1473e-16 -1.17528e-32 0.001415 
9745 1 -0.0323504 0.0411674 0.0100506 0 0 0 0 0 -0.206863 0 0 -0.000290867 0 0 0 0.001415 
485 1 0.0142511 0.04219 0.00978983 0 0 0 -2.85393e-18 2.41899e-18 -0.206863 2.51969e-24 -2.13569e-24 -0.000290867 -1.26423e-17 -1.49154e-17 1.11471e-32 0.001415 
4098 1 0.0474587 0.0419422 0.00999522 0 0 0 -5.12665e-19 1.74317e-19 -0.206863 3.97216e-20 -1.35062e-20 -0.000290867 1.13694e-18 3.34374e-18 -6.061e-32 0.001415 
4639 1 0.000319678 0.0462251 0.0103764 0 0 0 -4.10337e-18 2.20948e-18 -0.206863 -1.71448e-19 9.23171e-20 -0.000290867 5.19078e-17 9.64011e-17 -2.42115e-31 0.001415 
7349 1 0.0388392 0.0490157 0.0103444 0 0 0 -1.37153e-19 -2.31939e-18 -0.206863 -9.02734e-21 -1.52661e-19 -0.000290867 -2.84208e-16 1.68062e-17 -1.38895e-31 0.001415 
3318 1 0.0108764 -0.0748018 0.0124335 0 0 0 0 0 -0.206863 0 0 -0.000290867 0 0 0 0.001415 
5121 1 -0.0078553 -0.064238 0.0111864 0 0 0 -1.62758e-18 -5.72903e-19 -0.206863 -1.11536e-19 -3.92605e-20 -0.000290867 -1.29507e-16 3.6792e-16 4.22161e-30 0.001415 
6407 1 -0.0157638 -0.0542001 0.0120558 0 0 0 -4.11332e-18 1.19919e-18 -0.206863 -1.71699e-19 5.0057e-20 -0.000290867 -2.21733e-17 -7.6056e-17 -3.14067e-31 0.001415 
4748 1 -0.0463698 -0.05198 0.012806 0 0 0 7.93225e-18 -1.15979e-18 -0.206863 2.46885e-19 -3.60974e-20 -0.000290867 -1.34638e-16 -9.20843e-16 4.96833e-31 0.001415 
8903 1 0.00719176 -0.0530399 0.0125816 0 0 0 -3.67027e-19 3.09861e-18 -0.206863 -2.6924e-20 2.27305e-19 -0.000290867 -3.23324e-16 -3.82974e-17 2.56435e-30 0.001415 
8421 1 -0.0125515 -0.050364 0.012259 0 0 0 0 0 -0.206863 0 0 -0.000290867 0 0 0 0.001415 
5040 1 0.0412118 -0.051077 0.0118362 0 0 0 0 0 -0.206863 0 0 -0.000290867 0 0 0 0.001415 
9218 1 -0.0344149 -0.0491301 0.0113429 0 0 0 -1.09879e-18 2.8442e-18 -0.206863 -7.96579e-20 2.06192e-19 -0.000290867 -2.04009e-16 -7.88143e-17 4.68641e-30 0.001415 
8294 1 0.0417911 -0.0460756 0.0116042 0 0 0 0 0 -0.206863 0 0 -0.000290867 0 0 0 0.001415 
8781 1 0.0111727 -0.0390904 0.0112493 0 0 0 -7.30364e-18 -3.33188e-18 -0.206863 -3.04199e-19 -1.38774e-19 -0.000290867 -3.24699e-16 7.11755e-16 9.42292e-32 0.001415 
7141 1 -0.0440609 -0.0300013 0.0127967 0 0 0 0 0 -0.206863 0 0 -0.000290867 0 0 0 0.001415 
6550 1 -0.00716818 -0.0295154 0.012415 0 0 0 -1.24638e-18 2.0201e-19 -0.206863 -5.21018e-20 8.44447e-21 -0.000290867 -2.22795e-18 -1.37463e-17 5.73643e-33 0.001415 
9788 1 -0.0191042 -0.0222982 0.0126486 0 0 0 7.64133e-19 9.50176e-19 -0.206863 -2.04877e-20 -2.54758e-20 -0.000290867 3.00219e-16 -2.41437e-16 5.65484e-30 0.001415 
1405 1 0.0162037 -0.0193109 0.0125044 0 0 0 -6.11143e-18 -1.78791e-18 -0.206863 -3.58186e-19 -1.04788e-19 -0.000290867 6.98079e-17 -2.38617e-16 7.01192e-31 0.001415 
8819 1 0.00974619 -0.0192248 0.0126794 0 0 0 2.76988e-19 8.51928e-18 -0.206863 1.52791e-20 4.69937e-19 -0.000290867 1.72708e-16 -5.61526e-18 -2.92137e-30 0.001415 
4472 1 -0.0211077 -0.0159411 0.012754 0 0 0 -3.5432e-18 1.21117e-17 -0.206863 -1.8005e-19 6.15463e-19 -0.000290867 -9.59166e-16 -2.80599e-16 1.68021e-30 0.001415 
4389 1 -0.00210167 -0.0164576 0.011446 0 0 0 5.2832e-19 -2.5755e-19 -0.206863 5.23142e-20 -2.55025e-20 -0.000290867 -1.15567e-16 -2.37067e-16 -6.32437e-31 0.001415 
2098 1 -0.0163785 -0.0113032 0.0122673 0 0 0 -1.69791e-18 -3.08067e-19 -0.206863 -7.15322e-20 -1.29787e-20 -0.000290867 2.81034e-18 -1.54892e-17 3.241e-32 0.001415 
4518 1 0.00403554 -0.00678852 0.0109979 0 0 0 -4.38639e-18 5.23646e-18 -0.206863 -2.42723e-19 2.89763e-19 -0.000290867 -4.22104e-17 -3.5358e-17 -9.89769e-30 0.001415 
9888 1 -0.0548111 -0.00420847 0.0110406 0 0 0 7.65883e-19 -9.56576e-19 -0.206863 5.97951e-20 -7.46831e-20 -0.000290867 -2.54351e-16 -2.03646e-16 -1.50737e-30 0.001415 
3527 1 0.053278 -0.000195356 0.0119075 0 0 0 4.60114e-18 2.0926e-18 -0.206863 1.91917e-19 8.72838e-20 -0.000290867 -4.43859e-17 9.75943e-17 5.09117e-31 0.001415 
4852 1 -0.0576017 0.00160357 0.0126684 0 0 0 1.72117e-18 2.82408e-18 -0.206863 1.2248e-19 2.00964e-19 -0.000290867 8.93399e-18 -5.44494e-18 1.07058e-29 0.001415 
2456 1 0.0231999 0.00341526 0.0128361 0 0 0 -1.02002e-16 6.41464e-17 -0.206863 -2.707e-18 1.70236e-18 -0.000290867 -3.42307e-16 -5.44318e-16 -2.819e-30 0.001415 
1470 1 -0.0541433 0.00552442 0.0112881 0 0 0 4.86146e-18 4.68476e-18 -0.206863 2.90509e-19 2.7995e-19 -0.000290867 -2.44483e-16 2.53705e-16 3.3207e-30 0.001415 
7478 1 0.0063252 0.00556124 0.0111343 0 0 0 0 0 -0.206863 0 0 -0.000290867 0 0 0 0.001415 
5545 1 -0.0302182 0.00727945 0.0114285 0 0 0 0 0 -0.206863 0 0 -0.000290867 0 0 0 0.001415 
4367 1 0.0426483 0.0117219 0.0113341 0 0 0 -1.67181e-18 1.50809e-18 -0.206863 -1.29407e-19 1.16735e-19 -0.000290867 1.68529e-16 1.86824e-16 5.02412e-31 0.001415 
4345 1 0.0473197 0.0133822 0.0117696 0 0 0 2.87129e-18 1.0092e-18 -0.206863 1.19924e-19 4.21508e-20 -0.000290867 -1.78089e-17 5.06684e-17 -3.31845e-32 0.001415 
9994 1 -0.0272948 0.0197145 0.0117336 0 0 0 -4.58907e-18 -4.38393e-18 -0.206863 -2.63946e-19 -2.52146e-19 -0.000290867 2.41006e-16 -2.52284e-16 6.03019e-30 0.001415 
1279 1 -0.00741294 0.0227247 0.0126098 0 0 0 -5.50576e-18 -2.0395e-18 -0.206863 -3.11432e-19 -1.15364e-19 -0.000290867 -1.07311e-16 2.89692e-16 -5.5015e-31 0.001415 
2812 1 0.0619348 0.0249338 0.0112867 0 0 0 2.53566e-19 1.28657e-18 -0.206863 2.87741e-20 1.45998e-19 -0.000290867 3.85544e-16 -7.59856e-17 -4.07376e-30 0.001415 
4219 1 0.00713294 0.0263879 0.0110962 0 0 0 1.76514e-19 -1.30456e-18 -0.206863 2.02294e-20 -1.49508e-19 -0.000290867 -1.69288e-17 -2.29057e-18 2.39873e-31 0.001415 
3552 1 0.038076 0.0255707 0.0117729 0 0 0 -1.86048e-19 1.0884e-18 -0.206863 -1.80347e-20 1.05505e-19 -0.000290867 -2.00537e-16 -3.42792e-17 4.10426e-30 0.001415 
9955 1 0.0480973 0.0295036 0.0120683 0 0 0 0 0 -0.206863 0 0 -0.000290867 0 0 0 0.001415 
6216 1 -0.023401 0.0310553 0.0111656 0 0 0 -6.90273e-19 -3.20947e-18 -0.206863 -2.90037e-20 -1.34854e-19 -0.000290867 -4.17415e-17 8.97751e-18 -1.70319e-31 0.001415 
8775 1 0.0134757 0.0326995 0.0116516 0 0 0 4.23986e-21 -7.13553e-21 -0.206863 -1.28861e-20 2.16868e-20 -0.000290867 1.718e-16 1.02082e-16 -5.68199e-31 0.001415 
7874 1 -0.0157052 0.0360712 0.0113796 0 0 0 -1.09945e-18 -1.30048e-18 -0.206863 -4.58907e-20 -5.42815e-20 -0.000290867 3.27713e-17 -2.77055e-17 -1.19923e-32 0.001415 
4099 1 0.0465216 0.0422608 0.0126465 0 0 0 -9.46948e-19 3.21983e-19 -0.206863 -3.97203e-20 1.35058e-20 -0.000290867 2.65774e-18 7.81637e-18 -5.91479e-32 0.001415 
9746 1 -0.0326219 0.0429159 0.0122592 0 0 0 6.42512e-19 -4.13801e-18 -0.206863 4.32603e-20 -2.78612e-19 -0.000290867 3.53028e-16 5.48149e-17 -1.53037e-30 0.001415 
486 1 0.0131757 0.0431015 0.0122437 0 0 0 7.57903e-18 -6.42398e-18 -0.206863 3.98772e-19 -3.37999e-19 -0.000290867 6.80141e-16 8.02433e-16 3.92567e-30 0.001415 
8316 1 0.0241447 0.055508 0.0128113 0 0 0 0 0 -0.206863 0 0 -0.000290867 0 0 0 0.001415 
6048 1 -0.0014895 0.0671831 0.0116589 0 0 0 -3.68515e-18 -2.21449e-19 -0.206863 -2.57973e-19 -1.55022e-20 -0.000290867 5.37057e-18 -8.93722e-17 -3.26975e-31 0.001415 
3317 1 0.00879117 -0.0741345 0.0142267 0 0 0 2.717e-16 -8.6948e-17 -0.206863 6.33936e-18 -2.02868e-18 -0.000290867 1.53764e-16 4.8049e-16 1.77722e-29 0.001415 
4537 1 0.0348065 -0.0668743 0.0142046 0 0 0 8.94956e-17 -1.74287e-16 -0.206863 2.01043e-18 -3.91518e-18 -0.000290867 1.91168e-15 9.81643e-16 -4.68923e-30 0.001415 
5120 1 -0.00732864 -0.0640527 0.0139608 0 0 0 -1.10658e-16 -3.89514e-17 -0.206863 -2.24465e-18 -7.90109e-19 -0.000290867 3.51139e-16 -9.97563e-16 5.2368e-30 0.001415 
4749 1 -0.0443437 -0.0522762 0.0147594 0 0 0 -2.07115e-16 3.02826e-17 -0.206863 -3.48859e-18 5.10072e-19 -0.000290867 1.12624e-16 7.70283e-16 4.12503e-30 0.001415 
6408 1 -0.0176936 -0.0536375 0.0140479 0 0 0 2.91798e-16 -8.50704e-17 -0.206863 6.83763e-18 -1.99344e-18 -0.000290867 6.18225e-17 2.12056e-16 2.50285e-29 0.001415 
9217 1 -0.0337766 -0.0507822 0.0135502 0 0 0 -9.40594e-17 2.4347e-16 -0.206863 -1.89369e-18 4.90175e-18 -0.000290867 1.77347e-17 6.85142e-18 7.42767e-30 0.001415 
5039 1 0.0393096 -0.0515993 0.0138654 0 0 0 2.67667e-16 7.34959e-17 -0.206863 5.92523e-18 1.62695e-18 -0.000290867 4.48672e-17 -1.63403e-16 -7.40198e-30 0.001415 
8420 1 -0.0130316 -0.0490822 0.014736 0 0 0 8.90977e-17 -2.37909e-16 -0.206863 1.9397e-18 -5.17939e-18 -0.000290867 5.01715e-16 1.87894e-16 -7.24114e-30 0.001415 
8293 1 0.0410995 -0.0444363 0.013805 0 0 0 1.16477e-16 -2.76072e-16 -0.206863 2.68994e-18 -6.37566e-18 -0.000290867 -1.42277e-15 -6.00278e-16 1.83412e-29 0.001415 
8782 1 0.00995582 -0.0396456 0.0137433 0 0 0 2.02578e-16 9.24147e-17 -0.206863 3.92927e-18 1.79251e-18 -0.000290867 2.97748e-16 -6.52678e-16 7.55e-30 0.001415 
164 1 0.0235073 -0.0400101 0.0129442 0 0 0 7.44051e-18 9.93125e-17 -0.206863 1.44759e-19 1.93218e-18 -0.000290867 -9.74303e-16 7.2995e-17 2.0159e-30 0.001415 
1765 1 -0.00582286 -0.0341936 0.0144981 0 0 0 2.28995e-16 -7.16612e-17 -0.206863 4.7528e-18 -1.48733e-18 -0.000290867 -2.63562e-16 -8.42218e-16 -1.10268e-29 0.001415 
2898 1 -0.0015393 -0.0260351 0.0147703 0 0 0 1.66287e-16 -3.28267e-17 -0.206863 3.73512e-18 -7.37348e-19 -0.000290867 2.72853e-16 1.38217e-15 9.46289e-31 0.001415 
1113 1 0.057839 -0.0250229 0.0136269 0 0 0 2.50121e-16 1.28324e-16 -0.206863 5.37936e-18 2.75986e-18 -0.000290867 2.51098e-16 -4.89427e-16 -3.76653e-29 0.001415 
2604 1 -0.0264828 -0.0239558 0.0144948 0 0 0 2.34607e-16 -1.02147e-17 -0.206863 5.22545e-18 -2.27513e-19 -0.000290867 -3.61453e-17 -8.30173e-16 3.61511e-30 0.001415 
8818 1 0.00968245 -0.0211851 0.0147195 0 0 0 8.34597e-18 2.56696e-16 -0.206863 1.67034e-19 5.13746e-18 -0.000290867 6.64199e-17 -2.15951e-18 -3.44282e-30 0.001415 
3530 1 0.0663652 -0.0174708 0.0135767 0 0 0 1.56775e-16 1.92551e-16 -0.206863 3.75751e-18 4.61497e-18 -0.000290867 -1.3269e-15 1.08037e-15 6.15997e-30 0.001415 
8587 1 -0.0404076 -0.0166605 0.0129466 0 0 0 1.15448e-17 -1.52465e-16 -0.206863 6.36028e-19 -8.39961e-18 -0.000290867 1.54926e-15 1.17312e-16 1.52585e-30 0.001415 
4388 1 -0.00265555 -0.0161876 0.0142081 0 0 0 1.13023e-16 -5.50976e-17 -0.206863 2.27554e-18 -1.1093e-18 -0.000290867 4.26113e-16 8.741e-16 -1.51962e-30 0.001415 
2097 1 -0.0180782 -0.0116116 0.0145089 0 0 0 2.72855e-16 4.95065e-17 -0.206863 5.98426e-18 1.08578e-18 -0.000290867 2.19988e-16 -1.21246e-15 -1.23656e-29 0.001415 
5436 1 0.0238697 -0.0121851 0.0128692 0 0 0 -1.52e-18 2.88823e-18 -0.206863 -2.15455e-20 4.09397e-20 -0.000290867 7.22093e-17 3.80019e-17 -4.13128e-30 0.001415 
4519 1 0.0050482 -0.00799743 0.0133478 0 0 0 -1.33023e-16 1.58803e-16 -0.206863 -2.13178e-18 2.54492e-18 -0.000290867 -1.93133e-16 -1.6178e-16 -9.89785e-30 0.001415 
9887 1 -0.0551901 -0.00373509 0.0138048 0 0 0 7.92743e-17 -9.90123e-17 -0.206863 1.60258e-18 -2.00159e-18 -0.000290867 8.88537e-16 7.11408e-16 -4.13202e-30 0.001415 
4853 1 -0.0586257 -7.65915e-05 0.0147025 0 0 0 1.41714e-16 2.32522e-16 -0.206863 2.9684e-18 4.87052e-18 -0.000290867 -7.05312e-16 4.29862e-16 -5.00408e-30 0.001415 
9744 1 -0.0476714 0.00124731 0.013589 0 0 0 7.36251e-19 8.38652e-19 -0.206863 6.35215e-20 7.23563e-20 -0.000290867 4.31435e-17 -3.78756e-17 2.75383e-30 0.001415 
3403 1 0.0399954 0.00144601 0.013724 0 0 0 -2.3549e-16 1.11439e-17 -0.206863 -4.49728e-18 2.12821e-19 -0.000290867 -1.72916e-17 -3.65402e-16 3.11191e-30 0.001415 
3526 1 0.0549212 0.000551996 0.0140869 0 0 0 -2.74095e-16 -1.24658e-16 -0.206863 -6.39178e-18 -2.90698e-18 -0.000290867 -6.07151e-16 1.33499e-15 -6.63433e-29 0.001415 
3843 1 -0.0432547 0.00201405 0.0143095 0 0 0 2.2073e-16 1.50397e-16 -0.206863 4.57198e-18 3.11518e-18 -0.000290867 1.90115e-16 -2.79022e-16 1.48869e-30 0.001415 
6238 1 0.0476834 0.00358837 0.013845 0 0 0 2.7776e-16 -1.78716e-16 -0.206863 6.69906e-18 -4.31029e-18 -0.000290867 3.50828e-17 5.45258e-17 3.22448e-30 0.001415 
1469 1 -0.0554428 0.00427207 0.0134679 0 0 0 2.03776e-16 1.96369e-16 -0.206863 4.41379e-18 4.25336e-18 -0.000290867 4.03967e-16 -4.19204e-16 1.10328e-29 0.001415 
7479 1 0.00708078 0.00479504 0.0137518 0 0 0 -1.47893e-16 1.49973e-16 -0.206863 -3.11053e-18 3.15427e-18 -0.000290867 -8.73502e-16 -8.61389e-16 -2.11556e-29 0.001415 
6444 1 -0.0485008 0.00805 0.0131584 0 0 0 -1.74664e-18 2.12782e-18 -0.206863 -1.53018e-19 1.86412e-19 -0.000290867 -3.62224e-16 -2.97335e-16 -3.03774e-30 0.001415 
5546 1 -0.0286421 0.00814112 0.0136153 0 0 0 -2.77279e-16 -1.51592e-16 -0.206863 -6.56187e-18 -3.58747e-18 -0.000290867 -1.01291e-15 1.85272e-15 -5.43957e-29 0.001415 
7897 1 0.0202104 0.0106666 0.0130112 0 0 0 1.23e-18 5.8629e-18 -0.206863 7.33537e-20 3.49648e-19 -0.000290867 3.23354e-16 -6.78373e-17 8.82538e-31 0.001415 
4366 1 0.0434972 0.010956 0.0139228 0 0 0 -1.67713e-16 1.51289e-16 -0.206863 -3.53043e-18 3.18471e-18 -0.000290867 -6.76303e-16 -7.49722e-16 -2.30592e-30 0.001415 
4430 1 -0.0607358 0.0123237 0.013296 0 0 0 -2.04287e-16 4.36402e-17 -0.206863 -3.5374e-18 7.55668e-19 -0.000290867 -4.65621e-17 -2.17964e-16 3.42463e-30 0.001415 
5821 1 0.071151 0.0126674 0.0129984 0 0 0 -2.31221e-18 2.22242e-18 -0.206863 -9.65137e-20 9.27658e-20 -0.000290867 -4.94448e-17 -5.14425e-17 -2.2128e-32 0.001415 
4344 1 0.0486622 0.0138541 0.0142158 0 0 0 -2.49298e-16 -8.76233e-17 -0.206863 -5.42464e-18 -1.90665e-18 -0.000290867 6.88342e-17 -1.95841e-16 1.22259e-29 0.001415 
5629 1 -0.00809486 0.0186934 0.0140891 0 0 0 2.44305e-16 4.27377e-18 -0.206863 5.21816e-18 9.12845e-20 -0.000290867 2.55127e-17 -1.4584e-15 -7.2094e-31 0.001415 
9993 1 -0.0262716 0.020692 0.0141845 0 0 0 -1.58781e-16 -1.51683e-16 -0.206863 -2.87257e-18 -2.74416e-18 -0.000290867 -6.23234e-16 6.52399e-16 1.29324e-29 0.001415 
3553 1 0.038325 0.0241144 0.0141867 0 0 0 -3.72878e-17 2.18137e-16 -0.206863 -6.60969e-19 3.86673e-18 -0.000290867 5.85393e-16 1.00066e-16 4.23118e-30 0.001415 
2811 1 0.0616855 0.0236687 0.0138058 0 0 0 4.81318e-17 2.44217e-16 -0.206863 1.03232e-18 5.23792e-18 -0.000290867 -1.47075e-15 2.89865e-16 -9.94658e-30 0.001415 
4218 1 0.00694369 0.0277865 0.0135491 0 0 0 3.14662e-17 -2.32555e-16 -0.206863 6.09764e-19 -4.50655e-18 -0.000290867 -4.42286e-16 -5.98441e-17 -1.08346e-31 0.001415 
9956 1 0.047731 0.0274693 0.0140013 0 0 0 4.80725e-17 2.66984e-16 -0.206863 1.08006e-18 5.9984e-18 -0.000290867 -2.01112e-16 3.62118e-17 -5.32529e-30 0.001415 
6007 1 0.0347873 0.0296881 0.0137712 0 0 0 7.44106e-17 8.33753e-17 -0.206863 1.46295e-18 1.6392e-18 -0.000290867 -7.87333e-16 7.02678e-16 4.11092e-30 0.001415 
8774 1 0.0137081 0.0323084 0.0144448 0 0 0 -4.93766e-17 8.30989e-17 -0.206863 -1.01899e-18 1.71493e-18 -0.000290867 -8.20402e-16 -4.87475e-16 1.14286e-30 0.001415 
6215 1 -0.0229502 0.0331509 0.0130133 0 0 0 2.03935e-19 9.48207e-19 -0.206863 -8.65373e-21 -4.0236e-20 -0.000290867 1.9443e-16 -4.18169e-17 -6.70249e-31 0.001415 
3967 1 -0.0257836 0.0351781 0.0132248 0 0 0 -8.17489e-17 2.55749e-16 -0.206863 -1.83102e-18 5.72827e-18 -0.000290867 -6.97838e-16 -2.23061e-16 1.93759e-29 0.001415 
7873 1 -0.0162209 0.0354611 0.0140945 0 0 0 1.07468e-16 1.27118e-16 -0.206863 2.2669e-18 2.68139e-18 -0.000290867 -1.66414e-15 1.4069e-15 2.42685e-30 0.001415 
6847 1 -0.0500743 0.0395872 0.0142512 0 0 0 -2.61884e-16 1.12956e-16 -0.206863 -6.38187e-18 2.75264e-18 -0.000290867 4.95515e-16 1.14883e-15 -1.75505e-29 0.001415 
487 1 0.0121003 0.044013 0.0146976 0 0 0 1.63415e-16 -1.3851e-16 -0.206863 2.90325e-18 -2.46079e-18 -0.000290867 -4.61327e-17 -5.44276e-17 1.5863e-29 0.001415 
9747 1 -0.0328934 0.0446643 0.0144679 0 0 0 4.25059e-17 -2.73753e-16 -0.206863 9.14297e-19 -5.88841e-18 -0.000290867 -6.07417e-16 -9.43141e-17 -5.82277e-31 0.001415 
4638 1 0.00148191 0.0455993 0.0128797 0 0 0 3.15469e-18 -1.69866e-18 -0.206863 7.90198e-20 -4.25487e-20 -0.000290867 3.29117e-17 6.11222e-17 -3.40126e-31 0.001415 
7348 1 0.0388741 0.0496065 0.0131119 0 0 0 -7.42238e-18 -1.25519e-16 -0.206863 -1.50976e-19 -2.55314e-18 -0.000290867 1.21342e-15 -7.17538e-17 -3.89707e-31 0.001415 
8315 1 0.0261215 0.0546907 0.0146642 0 0 0 -2.64466e-16 1.09338e-16 -0.206863 -6.1709e-18 2.55122e-18 -0.000290867 -1.24629e-16 -3.01452e-16 5.94203e-29 0.001415 
4831 1 0.0293284 0.0560787 0.0132806 0 0 0 2.3189e-16 -1.28906e-16 -0.206863 4.93739e-18 -2.74465e-18 -0.000290867 -4.33913e-16 -7.80571e-16 -1.37945e-29 0.001415 
6909 1 0.00964204 0.0590336 0.0133147 0 0 0 2.3326e-17 -1.40545e-17 -0.206863 1.09201e-18 -6.57965e-19 -0.000290867 6.8729e-16 1.14068e-15 2.73741e-30 0.001415 
6047 1 -2.16486e-05 0.0672713 0.0140768 0 0 0 -2.69915e-16 -1.62198e-17 -0.206863 -5.82064e-18 -3.49775e-19 -0.000290867 2.59004e-17 -4.31011e-16 2.41743e-31 0.001415 
7455 1 0.00864732 0.0657086 0.0142232 0 0 0 -1.123e-17 2.66307e-16 -0.206863 -2.37979e-19 5.64342e-18 -0.000290867 -6.99792e-17 -2.95097e-18 -1.98206e-30 0.001415 
8757 1 0.00829498 0.0765507 0.0136697 0 0 0 0 0 -0.206863 0 0 -0.000290867 0 0 0 0.001415 
3316 1 0.00670592 -0.0734672 0.0160198 0 0 0 -2.717e-16 8.6948e-17 -0.206863 -6.33936e-18 2.02868e-18 -0.000290867 1.53764e-16 4.8049e-16 1.77722e-29 0.001415 
2499 1 0.0564696 -0.0568217 0.0161668 0 0 0 2.23524e-18 -5.11406e-18 -0.206863 9.39947e-20 -2.15052e-19 -0.000290867 -4.96054e-17 -2.16814e-17 -1.22995e-31 0.001415 
8902 1 0.00739974 -0.0547957 0.0147913 0 0 0 -3.23423e-17 2.73048e-16 -0.206863 -6.70075e-19 5.65708e-18 -0.000290867 3.15519e-16 3.73729e-17 6.32099e-30 0.001415 
4054 1 -0.0359786 -0.0521436 0.0164533 0 0 0 0 0 -0.206863 0 0 -0.000290867 0 0 0 0.001415 
9216 1 -0.0331383 -0.0524344 0.0157574 0 0 0 9.27879e-17 -2.40179e-16 -0.206863 1.8327e-18 -4.74389e-18 -0.000290867 3.26455e-16 1.26119e-16 1.26105e-30 0.001415 
6409 1 -0.0196234 -0.0530749 0.0160399 0 0 0 -2.91798e-16 8.50704e-17 -0.206863 -6.83763e-18 1.99344e-18 -0.000290867 6.18225e-17 2.12056e-16 2.50285e-29 0.001415 
5038 1 0.0374074 -0.0521216 0.0158946 0 0 0 -2.50785e-16 -6.88604e-17 -0.206863 -5.08737e-18 -1.39689e-18 -0.000290867 -3.01763e-17 1.099e-16 3.99884e-30 0.001415 
8292 1 0.0404079 -0.0427971 0.0160058 0 0 0 -1.14333e-16 2.7099e-16 -0.206863 -2.55249e-18 6.04988e-18 -0.000290867 -1.28806e-15 -5.43442e-16 1.60292e-29 0.001415 
163 1 0.0234703 -0.0405039 0.0157305 0 0 0 -7.44053e-18 -9.93128e-17 -0.206863 -1.4473e-19 -1.9318e-18 -0.000290867 -9.27743e-16 6.95066e-17 2.1143e-30 0.001415 
8783 1 0.00873888 -0.0402008 0.0162372 0 0 0 -2.00373e-16 -9.14088e-17 -0.206863 -3.76348e-18 -1.71688e-18 -0.000290867 1.92305e-16 -4.21543e-16 8.01506e-30 0.001415 
1766 1 -0.00794199 -0.0335305 0.0162526 0 0 0 -2.14738e-16 6.71998e-17 -0.206863 -4.04885e-18 1.26704e-18 -0.000290867 -2.23212e-16 -7.1328e-16 -2.53544e-30 0.001415 
7142 1 -0.0430179 -0.0310366 0.0152152 0 0 0 -1.78441e-16 1.7712e-16 -0.206863 -3.64839e-18 3.62139e-18 -0.000290867 5.66794e-16 5.71021e-16 -1.48838e-29 0.001415 
6549 1 -0.00774795 -0.0294214 0.0151833 0 0 0 1.28591e-16 -2.08416e-17 -0.206863 2.76747e-18 -4.48541e-19 -0.000290867 2.12681e-16 1.31223e-15 -2.06808e-31 0.001415 
1112 1 0.0563793 -0.0257718 0.0159328 0 0 0 -2.50121e-16 -1.28324e-16 -0.206863 -5.37936e-18 -2.75986e-18 -0.000290867 2.51098e-16 -4.89427e-16 -3.76653e-29 0.001415 
2603 1 -0.028804 -0.0238547 0.0161106 0 0 0 -2.34607e-16 1.02147e-17 -0.206863 -5.22545e-18 2.27513e-19 -0.000290867 -3.61453e-17 -8.30173e-16 3.61511e-30 0.001415 