ITEM: TIMESTEP
210000
ITEM: NUMBER OF ATOMS
10248
ITEM: BOX BOUNDS ff ff ff
-0.2 0.2
-0.2 0.2
-0.01 0.5
ITEM: ATOMS id type x y z ix iy iz vx vy vz fx fy fz omegax omegay omegaz radius 
168 1 0.0237028 -0.037401 0.00142336 0 0 0 0.0326145 0.435324 0.00188301 -4.32843e-08 -5.77739e-07 -0.000291052 -307.736 23.0556 2.92767e-12 0.001415 
5124 1 -0.00943529 -0.0647942 0.00207923 0 0 0 -1.07551e-17 -3.78575e-18 -0.241173 1.02092e-23 3.59362e-24 -0.000290821 2.43522e-16 -6.9183e-16 1.49141e-32 0.001415 
9891 1 -0.0536741 -0.00562861 0.0019637 0 0 0 7.12589e-18 -8.90012e-18 -0.241173 -6.76425e-24 8.44844e-24 -0.000290821 6.62887e-16 5.30741e-16 -2.89602e-31 0.001415 
8778 1 0.0127785 0.033873 0.00248801 0 0 0 -4.29713e-18 7.23191e-18 -0.241173 4.07905e-24 -6.86489e-24 -0.000290821 -4.4389e-16 -2.63755e-16 3.68594e-31 0.001415 
5123 1 -0.00890863 -0.0646088 0.0048536 0 0 0 9.81873e-18 3.45616e-18 -0.241173 -9.32043e-24 -3.28076e-24 -0.000290821 2.42073e-16 -6.87712e-16 1.77181e-32 0.001415 
167 1 0.0236509 -0.0380929 0.00420918 0 0 0 0.0225718 0.301278 0.00908827 -2.40932e-08 -3.21585e-07 -0.000291059 400.662 -30.0176 1.61874e-11 0.001415 
5439 1 0.0255064 -0.015295 0.00435658 0 0 0 6.69707e-19 -1.27254e-18 -0.241173 -6.35719e-25 1.20796e-24 -0.000290821 -5.23853e-18 -2.7569e-18 2.22075e-33 0.001415 
9890 1 -0.0540531 -0.00515523 0.00472796 0 0 0 -6.21393e-18 7.7611e-18 -0.241173 5.89857e-24 -7.36722e-24 -0.000290821 6.5688e-16 5.25932e-16 -2.89922e-31 0.001415 
5818 1 0.0744051 0.00953964 0.0050235 0 0 0 2.36848e-19 -2.2765e-19 -0.241173 -2.24828e-25 2.16097e-25 -0.000290821 -2.53158e-19 -2.63386e-19 -1.71766e-34 0.001415 
4096 1 0.0493328 0.0413049 0.00390859 0 0 0 1.82648e-17 -6.21043e-18 -0.241173 1.14669e-19 -3.899e-20 -0.000290821 -1.0729e-15 -3.15538e-15 3.95399e-30 0.001415 
4641 1 -0.00200478 0.0474767 0.00458578 0 0 0 -2.10629e-18 1.13415e-18 -0.241173 1.9994e-24 -1.07659e-24 -0.000290821 5.34806e-18 9.93221e-18 -2.46509e-33 0.001415 
166 1 0.0235645 -0.039247 0.00687946 0 0 0 -0.0114051 -0.15223 -0.0667439 9.18139e-09 1.22549e-07 -0.000290996 -76.3136 5.71743 -1.318e-11 0.001415 
8779 1 0.0136066 -0.0379801 0.00547737 0 0 0 2.27088e-19 1.03596e-19 -0.241173 -2.15564e-25 -9.83389e-26 -0.000290821 1.55085e-18 -3.39954e-18 2.49949e-32 0.001415 
6552 1 -0.00600865 -0.0297033 0.00609413 0 0 0 9.24437e-19 -1.49829e-19 -0.241173 -8.77522e-25 1.42226e-25 -0.000290821 -1.49621e-19 -9.23153e-19 -2.17642e-33 0.001415 
1407 1 0.0135434 -0.0200891 0.00678546 0 0 0 -8.61999e-19 -2.5218e-19 -0.241173 8.18253e-25 2.39381e-25 -0.000290821 -5.83705e-19 1.99522e-18 9.84916e-36 0.001415 
8589 1 -0.0402517 -0.0187189 0.00689243 0 0 0 7.32382e-20 -9.67209e-19 -0.241173 -6.95213e-26 9.18123e-25 -0.000290821 -4.51271e-18 -3.41707e-19 -1.37892e-31 0.001415 
5438 1 0.0249608 -0.0142584 0.00693275 0 0 0 5.84227e-16 -1.11012e-15 -0.241173 1.65513e-17 -3.145e-17 -0.000290821 -2.48641e-14 -1.30853e-14 -1.50921e-28 0.001415 
2100 1 -0.012979 -0.0106864 0.00700007 0 0 0 1.3963e-15 2.53344e-16 -0.241173 4.12409e-17 7.48272e-18 -0.000290821 6.05358e-16 -3.33642e-15 3.48563e-28 0.001415 
4516 1 0.00201022 -0.00437069 0.00551405 0 0 0 -1.24695e-18 1.48861e-18 -0.241173 1.18367e-24 -1.41306e-24 -0.000290821 5.595e-18 4.68672e-18 -2.89592e-32 0.001415 
6447 1 -0.0515136 0.0117203 0.00533644 0 0 0 -1.27927e-18 1.55845e-18 -0.241173 1.21435e-24 -1.47936e-24 -0.000290821 3.38235e-18 2.77644e-18 -3.2342e-32 0.001415 
4347 1 0.0446345 0.0124385 0.00609321 0 0 0 -9.14456e-19 -3.21413e-19 -0.241173 8.68047e-25 3.05101e-25 -0.000290821 8.33329e-19 -2.37091e-18 -1.24872e-32 0.001415 
9996 1 -0.0293411 0.0177597 0.00604787 0 0 0 -1.9898e-18 -1.90085e-18 -0.241173 1.88881e-24 1.80438e-24 -0.000290821 -9.26975e-18 9.70353e-18 1.08542e-32 0.001415 
1281 1 -0.00910888 0.0220965 0.00646245 0 0 0 -8.68958e-19 -3.21888e-19 -0.241173 8.24858e-25 3.05552e-25 -0.000290821 -1.07235e-18 2.89488e-18 -1.24269e-33 0.001415 
4221 1 0.00751144 0.0235905 0.0054063 0 0 0 5.01576e-20 -3.70697e-19 -0.241173 -4.76121e-26 3.51884e-25 -0.000290821 3.31764e-18 4.48897e-19 -1.15646e-32 0.001415 
3550 1 0.0375782 0.0284832 0.00616136 0 0 0 -1.26323e-18 7.39e-18 -0.241173 -4.55369e-21 2.66395e-20 -0.000290821 8.90773e-17 1.52266e-17 -2.39811e-32 0.001415 
2814 1 0.0624335 0.0274639 0.00546422 0 0 0 1.78694e-19 9.06677e-19 -0.241173 -1.69625e-25 -8.60663e-25 -0.000290821 -1.67108e-18 3.29348e-19 1.11996e-32 0.001415 
8777 1 0.0130109 0.0334818 0.00528119 0 0 0 4.05367e-18 -6.82217e-18 -0.241173 -3.84795e-24 6.47595e-24 -0.000290821 -4.42188e-16 -2.62744e-16 3.68182e-31 0.001415 
484 1 0.0153265 0.0412785 0.00655187 0 0 0 3.21056e-18 -2.72127e-18 -0.241173 -3.04763e-24 2.58317e-24 -0.000290821 -1.73278e-17 -2.04434e-17 1.33307e-32 0.001415 
4097 1 0.0483957 0.0416236 0.00655987 0 0 0 -1.65829e-17 5.63853e-18 -0.241173 -1.14671e-19 3.89905e-20 -0.000290821 -1.07151e-15 -3.15128e-15 3.93381e-30 0.001415 
4640 1 -0.000842548 0.0468509 0.00708907 0 0 0 -1.39617e-15 7.51777e-16 -0.241173 -3.65874e-17 1.97007e-17 -0.000290821 7.07992e-15 1.31485e-14 -7.89365e-28 0.001415 
7350 1 0.0388042 0.0484249 0.00679294 0 0 0 -8.37041e-21 -1.41551e-19 -0.241173 7.94561e-27 1.34367e-25 -0.000290821 -2.91737e-18 1.72514e-19 1.4539e-33 0.001415 
5122 1 -0.00838197 -0.0644234 0.00762798 0 0 0 -1.76665e-16 -6.21855e-17 -0.241173 -9.17925e-18 -3.23107e-18 -0.000290821 -5.22294e-16 1.4838e-15 -4.62606e-29 0.001415 
9219 1 -0.0350531 -0.0474779 0.0083516 0 0 0 0 0 -0.241173 0 0 -0.000290821 0 0 0 0.001415 
8295 1 0.0424827 -0.0477148 0.00861931 0 0 0 0 0 -0.241173 0 0 -0.000290821 0 0 0 0.001415 
8780 1 0.0123897 -0.0385353 0.00797131 0 0 0 4.11059e-17 1.87523e-17 -0.241173 2.80845e-19 1.2812e-19 -0.000290821 -3.31947e-15 7.27645e-15 -1.71102e-29 0.001415 
6551 1 -0.00658842 -0.0296093 0.00886251 0 0 0 5.98286e-18 -9.6968e-19 -0.241173 4.58128e-20 -7.42518e-21 -0.000290821 -1.74045e-16 -1.07385e-15 3.68662e-31 0.001415 
9889 1 -0.0544321 -0.00468185 0.00749223 0 0 0 2.07379e-16 -2.59013e-16 -0.241173 9.42503e-18 -1.17717e-17 -0.000290821 -2.64053e-15 -2.11414e-15 2.30388e-29 0.001415 
4517 1 0.00302288 -0.0055796 0.00786394 0 0 0 1.24695e-18 -1.48861e-18 -0.241173 -1.18367e-24 1.41306e-24 -0.000290821 5.595e-18 4.68672e-18 -2.89592e-32 0.001415 
3528 1 0.0516347 -0.000942708 0.00894392 0 0 0 -2.53877e-17 -1.15463e-17 -0.241173 -1.60822e-19 -7.31416e-20 -0.000290821 -1.70631e-15 3.75179e-15 -2.06401e-29 0.001415 
7477 1 0.00556963 0.00632744 0.00773284 0 0 0 -1.61613e-17 1.63886e-17 -0.241173 -3.46211e-18 3.51079e-18 -0.000290821 -9.77506e-17 -9.63951e-17 6.33473e-30 0.001415 
6446 1 -0.0505093 0.0104969 0.00768239 0 0 0 -7.72515e-18 9.41104e-18 -0.241173 -1.48341e-18 1.80715e-18 -0.000290821 1.86362e-16 1.52977e-16 3.10532e-30 0.001415 
5819 1 0.0733204 0.0105822 0.00742044 0 0 0 2.69071e-16 -2.58622e-16 -0.241173 1.42829e-17 -1.37283e-17 -0.000290821 4.24848e-16 4.42013e-16 6.1545e-29 0.001415 
4368 1 0.0417993 0.0124877 0.00796124 0 0 0 0 0 -0.241173 0 0 -0.000290821 0 0 0 0.001415 
4346 1 0.0459771 0.0129104 0.00853938 0 0 0 -1.55241e-17 -5.45643e-18 -0.241173 -1.20785e-19 -4.24535e-20 -0.000290821 -5.81341e-16 1.65398e-15 2.08967e-30 0.001415 
9995 1 -0.0283179 0.0187371 0.00849872 0 0 0 1.9898e-18 1.90085e-18 -0.241173 -1.88881e-24 -1.80438e-24 -0.000290821 -9.26975e-18 9.70353e-18 1.08542e-32 0.001415 
4220 1 0.00732219 0.0249892 0.00785921 0 0 0 2.47822e-18 -1.83156e-17 -0.241173 1.93043e-20 -1.42671e-19 -0.000290821 -3.33403e-15 -4.51116e-16 8.76132e-31 0.001415 
2813 1 0.0621842 0.0261988 0.00798341 0 0 0 2.36913e-18 1.20208e-17 -0.241173 2.17246e-20 1.10229e-19 -0.000290821 3.41704e-15 -6.73453e-16 -2.63057e-30 0.001415 
3551 1 0.0378271 0.027027 0.00857512 0 0 0 1.26323e-18 -7.39e-18 -0.241173 4.55369e-21 -2.66395e-20 -0.000290821 8.90773e-17 1.52266e-17 -2.39811e-32 0.001415 
8776 1 0.0132433 0.0330907 0.00807438 0 0 0 -1.34936e-18 2.27091e-18 -0.241173 -1.47996e-20 2.49072e-20 -0.000290821 9.09515e-16 5.40425e-16 1.46877e-30 0.001415 
3969 1 -0.0266131 0.0377733 0.00747969 0 0 0 -1.72965e-16 5.41115e-16 -0.241173 -7.61154e-18 2.38125e-17 -0.000290821 -6.56526e-15 -2.09855e-15 2.65261e-29 0.001415 
7875 1 -0.0151895 0.0366812 0.00788062 0 0 0 6.42369e-18 7.59822e-18 -0.241173 5.10879e-20 6.04289e-20 -0.000290821 1.49534e-15 -1.26419e-15 6.2322e-30 0.001415 
485 1 0.0142511 0.04219 0.00900576 0 0 0 -3.21056e-18 2.72127e-18 -0.241173 3.04763e-24 -2.58317e-24 -0.000290821 -1.73278e-17 -2.04434e-17 1.33307e-32 0.001415 
5121 1 -0.0078553 -0.064238 0.0104024 0 0 0 1.31792e-16 4.63905e-17 -0.241173 8.41223e-18 2.96108e-18 -0.000290821 -1.08845e-15 3.09221e-15 2.78908e-28 0.001415 
6406 1 -0.013834 -0.0547628 0.00927971 0 0 0 2.28051e-17 -6.64856e-18 -0.241173 1.45486e-19 -4.24148e-20 -0.000290821 -8.52727e-16 -2.92491e-15 1.54023e-29 0.001415 
4747 1 -0.048396 -0.0516837 0.0100685 0 0 0 -6.85157e-17 1.00178e-17 -0.241173 -4.4749e-19 6.54281e-20 -0.000290821 2.91476e-16 1.99352e-15 5.65787e-30 0.001415 
8904 1 0.00698378 -0.051284 0.00958787 0 0 0 0 0 -0.241173 0 0 -0.000290821 0 0 0 0.001415 
9218 1 -0.0344149 -0.0491301 0.0105588 0 0 0 -2.00309e-17 5.18495e-17 -0.241173 -2.22032e-19 5.74724e-19 -0.000290821 -1.19848e-14 -4.63007e-15 -7.74309e-29 0.001415 
8294 1 0.0417911 -0.0460756 0.0108201 0 0 0 0 0 -0.241173 0 0 -0.000290821 0 0 0 0.001415 
8781 1 0.0111727 -0.0390904 0.0104653 0 0 0 -2.4894e-18 -1.13565e-18 -0.241173 3.98901e-19 1.81976e-19 -0.000290821 -6.13698e-15 1.34526e-14 4.19148e-29 0.001415 
165 1 0.0235401 -0.0395718 0.00972278 0 0 0 -0.00268462 -0.035833 -0.0220642 1.515e-09 2.02215e-08 -0.000291037 -10.122 0.758345 -1.93313e-11 0.001415 
9787 1 -0.0202299 -0.023698 0.00967766 0 0 0 -1.04631e-17 -1.30106e-17 -0.241173 -8.42129e-20 -1.04716e-19 -0.000290821 -5.88431e-16 4.73218e-16 -5.98544e-29 0.001415 
1406 1 0.0148736 -0.0197 0.00925288 0 0 0 8.61999e-19 2.5218e-19 -0.241173 -8.18253e-25 -2.39381e-25 -0.000290821 -5.83705e-19 1.99522e-18 9.84916e-36 0.001415 
8588 1 -0.0403296 -0.0176897 0.00952749 0 0 0 1.10975e-17 -1.46558e-16 -0.241173 1.15769e-19 -1.52889e-18 -0.000290821 2.62723e-14 1.98937e-15 1.74374e-28 0.001415 
4389 1 -0.00210167 -0.0164576 0.010662 0 0 0 3.03396e-17 -1.47902e-17 -0.241173 5.08252e-19 -2.47767e-19 -0.000290821 -2.64995e-17 -5.43593e-17 -4.97223e-29 0.001415 
8820 1 0.00980992 -0.0172644 0.00985529 0 0 0 0 0 -0.241173 0 0 -0.000290821 0 0 0 0.001415 
3529 1 0.0670132 -0.0166749 0.0101553 0 0 0 2.93643e-18 3.60652e-18 -0.241173 3.67459e-19 4.51312e-19 -0.000290821 -1.58846e-16 1.29333e-16 -3.62808e-29 0.001415 
4473 1 -0.0215554 -0.0144106 0.00963196 0 0 0 0 0 -0.241173 0 0 -0.000290821 0 0 0 0.001415 
5437 1 0.0244153 -0.0132218 0.00950893 0 0 0 -5.44168e-16 1.034e-15 -0.241173 -1.57091e-17 2.98496e-17 -0.000290821 -1.49147e-14 -7.84922e-15 5.46794e-29 0.001415 
2099 1 -0.0146787 -0.0109948 0.00924165 0 0 0 -1.34646e-15 -2.44301e-16 -0.241173 -3.98075e-17 -7.22264e-18 -0.000290821 1.01692e-15 -5.60476e-15 2.01956e-28 0.001415 
4518 1 0.00403554 -0.00678852 0.0102138 0 0 0 -5.24534e-17 6.26188e-17 -0.241173 -5.52754e-19 6.59877e-19 -0.000290821 -2.18855e-14 -1.83326e-14 -7.90249e-28 0.001415 
9888 1 -0.0548111 -0.00420847 0.0102565 0 0 0 -1.80163e-16 2.25021e-16 -0.241173 -8.87353e-18 1.10829e-17 -0.000290821 -2.47937e-15 -1.98511e-15 4.9912e-29 0.001415 
2457 1 0.0227749 0.00368251 0.0092669 0 0 0 0 0 -0.241173 0 0 -0.000290821 0 0 0 0.001415 
1470 1 -0.0541433 0.00552442 0.010504 0 0 0 6.25357e-17 6.02627e-17 -0.241173 6.6397e-19 6.39837e-19 -0.000290821 -2.4097e-14 2.50058e-14 -1.701e-28 0.001415 
7478 1 0.0063252 0.00556124 0.0103503 0 0 0 -6.04938e-18 6.13445e-18 -0.241173 3.06959e-18 -3.11275e-18 -0.000290821 -5.06459e-16 -4.99436e-16 -2.3499e-28 0.001415 
5545 1 -0.0302182 0.00727945 0.0106444 0 0 0 0 0 -0.241173 0 0 -0.000290821 0 0 0 0.001415 
6445 1 -0.0495051 0.00927345 0.0100284 0 0 0 1.86518e-18 -2.27222e-18 -0.241173 1.41601e-18 -1.72503e-18 -0.000290821 1.83386e-15 1.50534e-15 2.12586e-29 0.001415 
4431 1 -0.0620527 0.012605 0.0100229 0 0 0 -8.25981e-17 1.76448e-17 -0.241173 -8.44039e-19 1.80306e-19 -0.000290821 -5.14153e-15 -2.40683e-14 6.2781e-29 0.001415 
4367 1 0.0426483 0.0117219 0.01055 0 0 0 -5.53076e-17 4.98915e-17 -0.241173 -6.75475e-19 6.09328e-19 -0.000290821 -5.47796e-15 -6.07263e-15 -3.54661e-28 0.001415 
4345 1 0.0473197 0.0133822 0.0109856 0 0 0 -2.3704e-17 -8.33149e-18 -0.241173 -5.84744e-19 -2.05526e-19 -0.000290821 2.09859e-15 -5.97071e-15 -2.56676e-28 0.001415 
5820 1 0.0722357 0.0116248 0.00981738 0 0 0 -2.54207e-16 2.44335e-16 -0.241173 -1.40321e-17 1.34872e-17 -0.000290821 -1.32479e-15 -1.37832e-15 1.19642e-29 0.001415 
9994 1 -0.0272948 0.0197145 0.0109496 0 0 0 -8.25333e-17 -7.88438e-17 -0.241173 -9.26992e-19 -8.85553e-19 -0.000290821 1.74613e-14 -1.82784e-14 -4.59341e-28 0.001415 
1280 1 -0.00826091 0.0224106 0.00914409 0 0 0 8.68958e-19 3.21888e-19 -0.241173 -8.24858e-25 -3.05552e-25 -0.000290821 -1.07235e-18 2.89488e-18 -1.24269e-33 0.001415 
2812 1 0.0619348 0.0249338 0.0105026 0 0 0 1.55152e-17 7.8723e-17 -0.241173 1.9663e-19 9.97682e-19 -0.000290821 -8.75221e-15 1.72494e-15 8.35126e-29 0.001415 
4219 1 0.00713294 0.0263879 0.0103121 0 0 0 1.00996e-17 -7.46428e-17 -0.241173 1.36288e-19 -1.00725e-18 -0.000290821 1.93951e-14 2.62428e-15 2.0464e-28 0.001415 
3552 1 0.038076 0.0255707 0.0109889 0 0 0 -1.02264e-17 5.98251e-17 -0.241173 -1.35515e-19 7.92776e-19 -0.000290821 -1.39842e-14 -2.39043e-15 3.01241e-28 0.001415 
6216 1 -0.023401 0.0310553 0.0103816 0 0 0 -4.05425e-18 -1.88505e-17 -0.241173 -2.87602e-20 -1.33722e-19 -0.000290821 -2.07691e-15 4.4669e-16 7.52895e-30 0.001415 
8775 1 0.0134757 0.0326995 0.0108676 0 0 0 -1.14977e-17 1.93503e-17 -0.241173 -1.92806e-19 3.24486e-19 -0.000290821 5.48275e-16 3.2578e-16 -4.60745e-30 0.001415 
3968 1 -0.0261983 0.0364757 0.00996023 0 0 0 1.72965e-16 -5.41115e-16 -0.241173 7.61154e-18 -2.38125e-17 -0.000290821 -6.56526e-15 -2.09855e-15 2.65261e-29 0.001415 
7874 1 -0.0157052 0.0360712 0.0105955 0 0 0 1.4315e-17 1.69324e-17 -0.241173 3.83423e-19 4.53529e-19 -0.000290821 1.72402e-15 -1.45752e-15 -2.15873e-28 0.001415 
9745 1 -0.0323504 0.0411674 0.00926653 0 0 0 0 0 -0.241173 0 0 -0.000290821 0 0 0 0.001415 
4098 1 0.0474587 0.0419422 0.00921115 0 0 0 4.01619e-18 -1.36559e-18 -0.241173 4.96485e-20 -1.68816e-20 -0.000290821 2.61128e-17 7.67974e-17 2.88986e-30 0.001415 
4639 1 0.000319678 0.0462251 0.00959237 0 0 0 1.33197e-15 -7.17208e-16 -0.241173 3.49935e-17 -1.88425e-17 -0.000290821 8.80345e-15 1.63494e-14 -5.3629e-28 0.001415 
7349 1 0.0388392 0.0490157 0.00956037 0 0 0 -2.82618e-18 -4.77933e-17 -0.241173 -3.6011e-20 -6.0898e-19 -0.000290821 6.19777e-15 -3.66495e-16 -4.48711e-29 0.001415 
6048 1 -0.0014895 0.0671831 0.0108748 0 0 0 -9.80965e-17 -5.89484e-18 -0.241173 -1.16337e-18 -6.99095e-20 -0.000290821 1.13369e-15 -1.88658e-14 -1.29928e-28 0.001415 
3318 1 0.0108764 -0.0748018 0.0116495 0 0 0 0 0 -0.241173 0 0 -0.000290821 0 0 0 0.001415 
6407 1 -0.0157638 -0.0542001 0.0112718 0 0 0 -2.28051e-17 6.64856e-18 -0.241173 -1.45486e-19 4.24148e-20 -0.000290821 -8.52727e-16 -2.92491e-15 1.54023e-29 0.001415 
4748 1 -0.0463698 -0.05198 0.0120219 0 0 0 -1.02804e-17 1.50312e-18 -0.241173 -4.20039e-19 6.14145e-20 -0.000290821 -5.64392e-15 -3.86011e-14 1.54319e-28 0.001415 
8903 1 0.00719176 -0.0530399 0.0117975 0 0 0 -9.28314e-18 7.83725e-17 -0.241173 -1.05005e-19 8.86501e-19 -0.000290821 -2.19514e-14 -2.60011e-15 2.18971e-28 0.001415 
9217 1 -0.0337766 -0.0507822 0.0127661 0 0 0 -3.51404e-16 9.096e-16 -0.241173 -1.48047e-18 3.83214e-18 -0.000290821 4.44793e-15 1.71836e-15 1.33506e-27 0.001415 
8421 1 -0.0125515 -0.050364 0.011475 0 0 0 1.16428e-17 -3.10887e-17 -0.241173 2.04842e-19 -5.46971e-19 -0.000290821 4.04236e-15 1.51388e-15 -8.80413e-28 0.001415 
5040 1 0.0412118 -0.051077 0.0110521 0 0 0 0 0 -0.241173 0 0 -0.000290821 0 0 0 0.001415 
164 1 0.0235029 -0.040069 0.0125327 0 0 0 -0.00275483 -0.0367702 -0.000865062 1.52647e-09 2.03746e-08 -0.000291049 8.21596 -0.615541 -1.82192e-11 0.001415 
7141 1 -0.0440609 -0.0300013 0.0120126 0 0 0 0 0 -0.241173 0 0 -0.000290821 0 0 0 0.001415 
6550 1 -0.00716818 -0.0295154 0.0116309 0 0 0 -3.73432e-18 6.05245e-19 -0.241173 3.47917e-19 -5.63892e-20 -0.000290821 -1.97128e-16 -1.21626e-15 -9.4889e-30 0.001415 
1113 1 0.057839 -0.0250229 0.0128428 0 0 0 1.68626e-15 8.65127e-16 -0.241173 1.08346e-17 5.55864e-18 -0.000290821 1.74372e-14 -3.39876e-14 2.88551e-28 0.001415 
9788 1 -0.0191042 -0.0222982 0.0118645 0 0 0 -4.5575e-17 -5.6671e-17 -0.241173 -6.67406e-19 -8.29898e-19 -0.000290821 1.91902e-14 -1.54328e-14 1.05345e-27 0.001415 
1405 1 0.0162037 -0.0193109 0.0117203 0 0 0 -1.13528e-16 -3.32128e-17 -0.241173 -1.27561e-18 -3.73183e-19 -0.000290821 6.5422e-15 -2.23625e-14 -6.89544e-28 0.001415 
8819 1 0.00974619 -0.0192248 0.0118954 0 0 0 3.86404e-18 1.18846e-16 -0.241173 3.91693e-20 1.20472e-18 -0.000290821 -2.54159e-14 8.26348e-16 -2.262e-28 0.001415 
3530 1 0.0663652 -0.0174708 0.0127926 0 0 0 8.39301e-16 1.03083e-15 -0.241173 1.1647e-18 1.43049e-18 -0.000290821 7.39252e-15 -6.019e-15 -4.55649e-29 0.001415 
8587 1 -0.0404076 -0.0166605 0.0121626 0 0 0 6.35083e-17 -8.38713e-16 -0.241173 2.50444e-19 -3.30746e-18 -0.000290821 -1.17954e-14 -8.93159e-16 -4.14161e-29 0.001415 
4472 1 -0.0211077 -0.0159411 0.0119699 0 0 0 -3.97115e-17 1.35745e-16 -0.241173 -3.77871e-19 1.29167e-18 -0.000290821 -3.34681e-14 -9.79091e-15 -5.36418e-28 0.001415 
5436 1 0.0238697 -0.0121851 0.0120851 0 0 0 9.68636e-19 -1.84055e-18 -0.241173 -3.53324e-19 6.71369e-19 -0.000290821 1.61096e-14 8.47805e-15 2.41534e-28 0.001415 
2098 1 -0.0163785 -0.0113032 0.0114832 0 0 0 -4.98438e-17 -9.04361e-18 -0.241173 -1.4334e-18 -2.60076e-19 -0.000290821 4.11566e-16 -2.26834e-15 -1.46607e-28 0.001415 
4519 1 0.0050482 -0.00799743 0.0125637 0 0 0 -5.74073e-16 6.85327e-16 -0.241173 -2.83497e-18 3.38439e-18 -0.000290821 3.02977e-15 2.53792e-15 1.31521e-27 0.001415 
3527 1 0.053278 -0.000195356 0.0111234 0 0 0 2.53877e-17 1.15463e-17 -0.241173 1.60822e-19 7.31416e-20 -0.000290821 -1.70631e-15 3.75179e-15 -2.06401e-29 0.001415 
4852 1 -0.0576017 0.00160357 0.0118844 0 0 0 4.08427e-17 6.70142e-17 -0.241173 4.57438e-19 7.50559e-19 -0.000290821 -1.35383e-14 8.25111e-15 6.41642e-28 0.001415 
9744 1 -0.0476714 0.00124731 0.012805 0 0 0 2.51206e-17 2.86145e-17 -0.241173 2.98832e-19 3.40395e-19 -0.000290821 -1.30533e-14 1.14595e-14 5.22374e-28 0.001415 
2456 1 0.0231999 0.00341526 0.012052 0 0 0 -3.50807e-16 2.20613e-16 -0.241173 -1.51096e-18 9.502e-19 -0.000290821 4.61393e-15 7.33681e-15 -2.58922e-28 0.001415 
1469 1 -0.0554428 0.00427207 0.0126838 0 0 0 7.37485e-16 7.1068e-16 -0.241173 3.27445e-18 3.15544e-18 -0.000290821 1.6934e-14 -1.75727e-14 -2.53916e-29 0.001415 
6444 1 -0.0485008 0.00805 0.0123743 0 0 0 -6.37936e-17 7.77156e-17 -0.241173 -7.7058e-19 9.38747e-19 -0.000290821 -1.86824e-14 -1.53356e-14 -1.51689e-27 0.001415 
5546 1 -0.0286421 0.00814112 0.0128312 0 0 0 -1.319e-15 -7.21114e-16 -0.241173 -6.63977e-18 -3.63006e-18 -0.000290821 -2.88441e-14 5.27589e-14 -3.98222e-27 0.001415 
7897 1 0.0202104 0.0106666 0.0122271 0 0 0 2.07571e-17 9.89408e-17 -0.241173 2.20746e-19 1.05221e-18 -0.000290821 -3.1313e-14 6.56925e-15 8.94265e-29 0.001415 
4430 1 -0.0607358 0.0123237 0.012512 0 0 0 -8.39756e-16 1.79391e-16 -0.241173 -3.64209e-18 7.78032e-19 -0.000290821 1.48652e-15 6.95863e-15 -8.85581e-29 0.001415 
5821 1 0.071151 0.0126674 0.0122143 0 0 0 -1.5101e-17 1.45146e-17 -0.241173 -2.50816e-19 2.41076e-19 -0.000290821 -1.74989e-15 -1.82059e-15 -4.9581e-29 0.001415 
1279 1 -0.00741294 0.0227247 0.0118257 0 0 0 -8.63113e-17 -3.19723e-17 -0.241173 -1.07652e-18 -3.98774e-19 -0.000290821 3.42074e-16 -9.23453e-16 -1.51377e-28 0.001415 
4218 1 0.00694369 0.0277865 0.012765 0 0 0 1.60741e-16 -1.18798e-15 -0.241173 4.3123e-19 -3.18707e-18 -0.000290821 -4.06172e-14 -5.49576e-15 2.12656e-28 0.001415 
9955 1 0.0480973 0.0295036 0.0112843 0 0 0 0 0 -0.241173 0 0 -0.000290821 0 0 0 0.001415 
6215 1 -0.0229502 0.0331509 0.0122293 0 0 0 -9.75615e-18 -4.53618e-17 -0.241173 -1.31889e-19 -6.13228e-19 -0.000290821 3.08035e-14 -6.62503e-15 -2.8535e-28 0.001415 
3967 1 -0.0257836 0.0351781 0.0124408 0 0 0 -3.05254e-16 9.54978e-16 -0.241173 -1.42804e-18 4.46758e-18 -0.000290821 1.62238e-14 5.18586e-15 -8.21087e-28 0.001415 
4099 1 0.0465216 0.0422608 0.0118624 0 0 0 1.96909e-17 -6.69534e-18 -0.241173 6.23815e-19 -2.12111e-19 -0.000290821 -4.30595e-16 -1.26637e-15 -2.66355e-28 0.001415 
9746 1 -0.0326219 0.0429159 0.0114752 0 0 0 1.38089e-17 -8.89346e-17 -0.241173 1.52403e-19 -9.81529e-19 -0.000290821 2.40316e-14 3.7314e-15 -3.48016e-28 0.001415 
486 1 0.0131757 0.0431015 0.0114597 0 0 0 9.96088e-17 -8.44283e-17 -0.241173 1.01143e-18 -8.57289e-19 -0.000290821 2.1303e-14 2.51333e-14 -3.23094e-28 0.001415 
4638 1 0.00148191 0.0455993 0.0120957 0 0 0 9.42655e-18 -5.07578e-18 -0.241173 8.08677e-19 -4.35437e-19 -0.000290821 -4.42339e-15 -8.21494e-15 7.93504e-28 0.001415 
7348 1 0.0388741 0.0496065 0.0123278 0 0 0 -3.71042e-17 -6.27466e-16 -0.241173 -1.71618e-19 -2.90222e-18 -0.000290821 3.89023e-15 -2.30042e-16 2.39847e-29 0.001415 
8316 1 0.0241447 0.055508 0.0120273 0 0 0 0 0 -0.241173 0 0 -0.000290821 0 0 0 0.001415 
4831 1 0.0293284 0.0560787 0.0124966 0 0 0 9.66595e-16 -5.37322e-16 -0.241173 4.8568e-18 -2.69986e-18 -0.000290821 -2.11599e-14 -3.80647e-14 -5.21356e-28 0.001415 
6909 1 0.00964204 0.0590336 0.0125307 0 0 0 2.04419e-16 -1.23168e-16 -0.241173 1.76192e-18 -1.06161e-18 -0.000290821 3.48709e-14 5.78745e-14 -9.98202e-28 0.001415 
8757 1 0.00829498 0.0765507 0.0128856 0 0 0 0 0 -0.241173 0 0 -0.000290821 0 0 0 0.001415 
3317 1 0.00879117 -0.0741345 0.0134426 0 0 0 1.25932e-15 -4.03e-16 -0.241173 2.21882e-18 -7.10053e-19 -0.000290821 -2.07341e-14 -6.47911e-14 -1.77618e-27 0.001415 
4537 1 0.0348065 -0.0668743 0.0134205 0 0 0 4.56664e-16 -8.89323e-16 -0.241173 -4.33488e-22 8.4419e-22 -0.000290821 9.4419e-15 4.84838e-15 -4.63249e-29 0.001415 
5120 1 -0.00732864 -0.0640527 0.0131767 0 0 0 -5.31029e-16 -1.8692e-16 -0.241173 7.67575e-19 2.70184e-19 -0.000290821 2.35381e-15 -6.68701e-15 3.73456e-28 0.001415 
8902 1 0.00739974 -0.0547957 0.0140072 0 0 0 -1.70775e-16 1.44177e-15 -0.241173 1.05176e-19 -8.87944e-19 -0.000290821 1.50504e-14 1.78271e-15 8.94348e-29 0.001415 
4749 1 -0.0443437 -0.0522762 0.0139753 0 0 0 -1.10614e-15 1.61731e-16 -0.241173 8.68653e-19 -1.27007e-19 -0.000290821 3.23793e-15 2.21455e-14 -6.6121e-29 0.001415 
6408 1 -0.0176936 -0.0536375 0.0132638 0 0 0 2.63978e-15 -7.69599e-16 -0.241173 2.29856e-17 -6.70119e-18 -0.000290821 -2.76506e-14 -9.48436e-14 -2.8374e-27 0.001415 
5039 1 0.0393096 -0.0515993 0.0130813 0 0 0 1.67162e-15 4.58993e-16 -0.241173 1.0442e-17 2.86715e-18 -0.000290821 1.45694e-14 -5.30608e-14 2.56425e-27 0.001415 
8420 1 -0.0130316 -0.0490822 0.0139519 0 0 0 4.69436e-16 -1.25349e-15 -0.241173 -2.05299e-19 5.4819e-19 -0.000290821 -1.14364e-14 -4.28296e-15 1.27664e-27 0.001415 
8293 1 0.0410995 -0.0444363 0.0130209 0 0 0 6.69219e-16 -1.58617e-15 -0.241173 2.81601e-18 -6.67448e-18 -0.000290821 -9.30238e-14 -3.92474e-14 -1.01692e-28 0.001415 
8782 1 0.00995582 -0.0396456 0.0129592 0 0 0 1.06467e-15 4.85694e-16 -0.241173 -6.80793e-19 -3.10574e-19 -0.000290821 1.22199e-14 -2.67867e-14 -1.04696e-27 0.001415 
1765 1 -0.00582286 -0.0341936 0.013714 0 0 0 1.27232e-15 -3.98156e-16 -0.241173 -1.20775e-21 3.7795e-22 -0.000290821 -1.59987e-14 -5.11243e-14 4.64339e-28 0.001415 
7142 1 -0.0430179 -0.0310366 0.0144312 0 0 0 -9.67342e-16 9.60182e-16 -0.241173 9.18249e-22 -9.11453e-22 -0.000290821 2.60944e-14 2.6289e-14 -1.61901e-28 0.001415 
6549 1 -0.00774795 -0.0294214 0.0143993 0 0 0 6.55087e-16 -1.06174e-16 -0.241173 -3.94354e-19 6.39156e-20 -0.000290821 8.86059e-16 5.46692e-15 8.48873e-29 0.001415 
2898 1 -0.0015393 -0.0260351 0.0139862 0 0 0 8.47853e-16 -1.67374e-16 -0.241173 -8.04824e-22 1.5888e-22 -0.000290821 -5.03188e-16 -2.54896e-15 -8.95333e-29 0.001415 
2604 1 -0.0264828 -0.0239558 0.0137108 0 0 0 1.80955e-15 -7.8787e-17 -0.241173 1.27354e-17 -5.54491e-19 -0.000290821 -3.55755e-15 -8.17087e-14 -2.09854e-28 0.001415 
7959 1 -0.0480224 -0.0227988 0.0143928 0 0 0 -1.34107e-15 8.36463e-16 -0.241173 1.27301e-21 -7.94012e-22 -0.000290821 2.46524e-14 3.95244e-14 2.38025e-27 0.001415 
8818 1 0.00968245 -0.0211851 0.0139354 0 0 0 4.3891e-17 1.34995e-15 -0.241173 -3.92146e-20 -1.20612e-18 -0.000290821 9.5033e-15 -3.08981e-16 -1.10432e-28 0.001415 
9789 1 -0.0179785 -0.0208985 0.0140514 0 0 0 -9.8725e-16 -1.22761e-15 -0.241173 7.52609e-19 9.35846e-19 -0.000290821 -2.31273e-14 1.8599e-14 2.54134e-29 0.001415 
4471 1 -0.0206599 -0.0174716 0.0143078 0 0 0 -3.27745e-16 1.12033e-15 -0.241173 3.7822e-19 -1.29286e-18 -0.000290821 1.36759e-15 4.00082e-16 -2.28959e-28 0.001415 
1404 1 0.0175339 -0.0189217 0.0141877 0 0 0 -1.16787e-15 -3.41662e-16 -0.241173 1.27683e-18 3.73539e-19 -0.000290821 -1.44394e-15 4.93568e-15 5.37415e-28 0.001415 
8586 1 -0.0404855 -0.0156313 0.0147976 0 0 0 -5.9969e-17 7.91971e-16 -0.241173 -3.66227e-19 4.83653e-18 -0.000290821 -3.83222e-14 -2.9018e-15 -2.04019e-28 0.001415 
4388 1 -0.00265555 -0.0161876 0.0134241 0 0 0 5.54272e-16 -2.70201e-16 -0.241173 -5.08807e-19 2.48038e-19 -0.000290821 2.138e-15 4.38574e-15 3.65553e-30 0.001415 
2097 1 -0.0180782 -0.0116116 0.0137248 0 0 0 1.47477e-15 2.6758e-16 -0.241173 -1.39992e-21 -2.54001e-22 -0.000290821 8.10392e-15 -4.46647e-14 -1.64091e-27 0.001415 
5435 1 0.0233242 -0.0111485 0.0146613 0 0 0 5.33513e-16 -1.01376e-15 -0.241173 -4.89479e-19 9.30084e-19 -0.000290821 -2.17503e-15 -1.14466e-15 -3.15111e-28 0.001415 
9887 1 -0.0551901 -0.00373509 0.0130208 0 0 0 3.8251e-16 -4.77748e-16 -0.241173 -5.51886e-19 6.89296e-19 -0.000290821 6.30066e-15 5.04463e-15 1.26963e-30 0.001415 
4853 1 -0.0586257 -7.65915e-05 0.0139184 0 0 0 7.47359e-16 1.22626e-15 -0.241173 -4.58186e-19 -7.51787e-19 -0.000290821 9.62839e-15 -5.86815e-15 -1.436e-27 0.001415 
9743 1 -0.0492029 -0.00049722 0.0144236 0 0 0 6.53294e-16 7.44156e-16 -0.241173 -2.99476e-19 -3.41128e-19 -0.000290821 2.22647e-14 -1.95461e-14 1.52823e-27 0.001415 
3403 1 0.0399954 0.00144601 0.0129399 0 0 0 -1.47425e-15 6.97647e-17 -0.241173 -9.13197e-18 4.32145e-19 -0.000290821 2.48621e-15 5.2538e-14 -4.21178e-28 0.001415 
3526 1 0.0549212 0.000551996 0.0133029 0 0 0 -1.47334e-15 -6.70073e-16 -0.241173 1.39856e-21 6.36066e-22 -0.000290821 -2.19835e-14 4.83367e-14 -1.366e-27 0.001415 
3843 1 -0.0432547 0.00201405 0.0135254 0 0 0 1.21464e-15 8.27611e-16 -0.241173 -1.153e-21 -7.8561e-22 -0.000290821 1.69875e-14 -2.49316e-14 2.01323e-27 0.001415 
2455 1 0.0236249 0.00314802 0.0148371 0 0 0 2.03329e-16 -1.27868e-16 -0.241173 1.5111e-18 -9.50288e-19 -0.000290821 5.25756e-15 8.36029e-15 -2.1371e-28 0.001415 
6238 1 0.0476834 0.00358837 0.0130609 0 0 0 1.88663e-15 -1.21389e-15 -0.241173 1.03724e-17 -6.67377e-18 -0.000290821 -4.66754e-14 -7.25431e-14 1.15663e-27 0.001415 
7479 1 0.00708078 0.00479504 0.0129677 0 0 0 -7.35366e-16 7.45707e-16 -0.241173 3.93239e-19 -3.98769e-19 -0.000290821 3.15301e-15 3.10928e-15 5.18755e-28 0.001415 
6443 1 -0.0474965 0.00682656 0.0147203 0 0 0 -8.30014e-16 1.01115e-15 -0.241173 8.38839e-19 -1.0219e-18 -0.000290821 1.55344e-14 1.27516e-14 -1.92508e-28 0.001415 
7898 1 0.0197791 0.00861083 0.0141237 0 0 0 2.84163e-16 1.35449e-15 -0.241173 -2.21035e-19 -1.05359e-18 -0.000290821 2.19306e-14 -4.60088e-15 -3.72442e-28 0.001415 
4366 1 0.0434972 0.010956 0.0131388 0 0 0 -8.12381e-16 7.32827e-16 -0.241173 6.76299e-19 -6.10071e-19 -0.000290821 3.91358e-15 4.33843e-15 -3.5454e-28 0.001415 
1176 1 0.023371 0.01534 0.0141251 0 0 0 1.79911e-17 1.52447e-15 -0.241173 -1.70781e-23 -1.4471e-21 -0.000290821 2.40543e-14 -2.83879e-16 -5.20587e-30 0.001415 
4344 1 0.0486622 0.0138541 0.0134317 0 0 0 -1.30388e-15 -4.58287e-16 -0.241173 7.06804e-19 2.48428e-19 -0.000290821 -4.26749e-15 1.21415e-14 1.00089e-27 0.001415 
5822 1 0.0700663 0.01371 0.0146113 0 0 0 1.10308e-15 -1.06025e-15 -0.241173 -1.0471e-21 1.00644e-21 -0.000290821 -2.64096e-14 -2.74766e-14 9.19631e-28 0.001415 
9808 1 -0.0411335 0.0170646 0.0146565 0 0 0 1.07639e-15 -8.8775e-16 -0.241173 -1.02177e-21 8.42697e-22 -0.000290821 -3.42606e-14 -4.15409e-14 2.99053e-27 0.001415 
5629 1 -0.00809486 0.0186934 0.0133051 0 0 0 1.68877e-15 2.95426e-17 -0.241173 1.139e-17 1.99252e-19 -0.000290821 1.5097e-15 -8.63e-14 3.58181e-28 0.001415 
9993 1 -0.0262716 0.020692 0.0134004 0 0 0 -8.10511e-16 -7.74278e-16 -0.241173 9.2784e-19 8.86363e-19 -0.000290821 -1.22011e-14 1.2772e-14 7.2949e-28 0.001415 
1278 1 -0.00656497 0.0230388 0.0145074 0 0 0 -8.40772e-16 -3.11447e-16 -0.241173 1.0774e-18 3.991e-19 -0.000290821 6.02154e-15 -1.62556e-14 5.39263e-29 0.001415 
3553 1 0.038325 0.0241144 0.0134026 0 0 0 -1.9539e-16 1.14305e-15 -0.241173 1.3571e-19 -7.93917e-19 -0.000290821 1.60643e-14 2.74599e-15 5.71705e-28 0.001415 
2811 1 0.0616855 0.0236687 0.0130218 0 0 0 2.44989e-16 1.24305e-15 -0.241173 -2.18604e-19 -1.10918e-18 -0.000290821 1.98663e-15 -3.91538e-16 -2.93121e-28 0.001415 
9956 1 0.047731 0.0274693 0.0132172 0 0 0 3.33419e-16 1.85174e-15 -0.241173 2.24567e-18 1.2472e-17 -0.000290821 4.61597e-14 -8.3114e-15 3.30165e-29 0.001415 
6007 1 0.0347873 0.0296881 0.0129871 0 0 0 3.83131e-16 4.29289e-16 -0.241173 -3.63687e-22 -4.07502e-22 -0.000290821 -2.63598e-15 2.35255e-15 1.33568e-29 0.001415 
8774 1 0.0137081 0.0323084 0.0136608 0 0 0 -2.41549e-16 4.06517e-16 -0.241173 2.07847e-19 -3.498e-19 -0.000290821 -5.18122e-15 -3.07863e-15 -4.5596e-29 0.001415 
6214 1 -0.0224995 0.0352466 0.014077 0 0 0 -2.82472e-16 -1.31337e-15 -0.241173 1.60931e-19 7.48258e-19 -0.000290821 -2.74307e-14 5.89963e-15 1.10106e-27 0.001415 
7873 1 -0.0162209 0.0354611 0.0133105 0 0 0 5.31138e-16 6.28253e-16 -0.241173 -4.35034e-19 -5.14578e-19 -0.000290821 -6.96709e-15 5.89012e-15 5.65888e-28 0.001415 
6847 1 -0.0500743 0.0395872 0.0134671 0 0 0 -1.77192e-15 7.64266e-16 -0.241173 -1.18743e-17 5.12166e-18 -0.000290821 4.32498e-14 1.00273e-13 -3.47046e-27 0.001415 