ITEM: TIMESTEP
50000
ITEM: NUMBER OF ATOMS
10248
ITEM: BOX BOUNDS ff ff ff
-0.2 0.2
-0.2 0.2
-0.01 0.5
ITEM: ATOMS id type x y z ix iy iz vx vy vz fx fy fz omegax omegay omegaz radius 
5124 1 -0.00943529 -0.0647942 0.00280079 0 0 0 -1.04564e-17 -3.68061e-18 -0.209804 9.29126e-24 3.27049e-24 -0.000290863 2.41031e-16 -6.84753e-16 1.33825e-32 0.001415 
168 1 0.0236553 -0.0380352 0.00173629 0 0 0 5.31796e-18 7.09817e-17 -0.209804 1.32386e-19 1.76702e-18 -0.000290863 -2.65817e-16 1.9915e-17 -4.30551e-31 0.001415 
9891 1 -0.0536741 -0.00562861 0.00268526 0 0 0 6.91727e-18 -8.63956e-18 -0.209804 -6.1465e-24 7.67689e-24 -0.000290863 6.56039e-16 5.25258e-16 -2.86267e-31 0.001415 
8778 1 0.0127785 0.033873 0.00320957 0 0 0 -4.1682e-18 7.01493e-18 -0.209804 3.70375e-24 -6.23328e-24 -0.000290863 -4.39586e-16 -2.61198e-16 3.60373e-31 0.001415 
167 1 0.0236183 -0.0385289 0.00452264 0 0 0 -4.8589e-18 -6.48544e-17 -0.209804 -1.16199e-19 -1.55097e-18 -0.000290863 -2.89292e-16 2.16738e-17 7.75431e-31 0.001415 
5439 1 0.0255064 -0.015295 0.00507814 0 0 0 6.69773e-19 -1.27267e-18 -0.209804 -5.95143e-25 1.13086e-24 -0.000290863 -5.23944e-18 -2.75738e-18 2.22113e-33 0.001415 
4096 1 0.0493328 0.0413049 0.00463015 0 0 0 4.71846e-18 -1.60438e-18 -0.209804 1.36735e-19 -4.6493e-20 -0.000290863 -4.44874e-17 -1.30837e-16 1.55821e-31 0.001415 
5123 1 -0.00890863 -0.0646088 0.00557517 0 0 0 9.51996e-18 3.351e-18 -0.209804 -8.45918e-24 -2.97761e-24 -0.000290863 2.39581e-16 -6.80635e-16 1.6187e-32 0.001415 
8779 1 0.0136066 -0.0379801 0.00619893 0 0 0 1.14885e-19 5.241e-20 -0.209804 -1.02084e-25 -4.65701e-26 -0.000290863 -4.07844e-19 8.94015e-19 -5.00797e-34 0.001415 
6552 1 -0.00600865 -0.0297033 0.00681569 0 0 0 7.94186e-19 -1.28719e-19 -0.209804 -7.05693e-25 1.14376e-25 -0.000290863 -4.6851e-19 -2.89067e-18 -2.0411e-34 0.001415 
9890 1 -0.0540531 -0.00515523 0.00544953 0 0 0 -6.00522e-18 7.50042e-18 -0.209804 5.33608e-24 -6.66468e-24 -0.000290863 6.50032e-16 5.20448e-16 -2.86587e-31 0.001415 
4516 1 0.00201022 -0.00437069 0.00623562 0 0 0 -1.07235e-18 1.28017e-18 -0.209804 9.5286e-25 -1.13752e-24 -0.000290863 4.69486e-18 3.93271e-18 -1.24823e-32 0.001415 
5818 1 0.0744051 0.00953964 0.00574507 0 0 0 2.36871e-19 -2.27673e-19 -0.209804 -2.10477e-25 2.02304e-25 -0.000290863 -2.53202e-19 -2.63431e-19 -1.71796e-34 0.001415 
6447 1 -0.0515136 0.0117203 0.006058 0 0 0 -1.10179e-18 1.34223e-18 -0.209804 9.79017e-25 -1.19267e-24 -0.000290863 4.42272e-18 3.63043e-18 -1.38202e-32 0.001415 
4347 1 0.0446345 0.0124385 0.00681478 0 0 0 -7.28311e-19 -2.55987e-19 -0.209804 6.47158e-25 2.27463e-25 -0.000290863 -2.68523e-19 7.63976e-19 -3.25109e-35 0.001415 
9996 1 -0.0293411 0.0177597 0.00676943 0 0 0 -1.75263e-18 -1.67428e-18 -0.209804 1.55734e-24 1.48773e-24 -0.000290863 -7.58374e-18 7.93862e-18 1.07773e-32 0.001415 
4221 1 0.00751144 0.0235905 0.00612786 0 0 0 3.08449e-20 -2.27964e-19 -0.209804 -2.7408e-26 2.02563e-25 -0.000290863 4.14661e-19 5.61062e-20 1.08557e-34 0.001415 
3550 1 0.0375782 0.0284832 0.00688293 0 0 0 -1.07717e-18 6.30153e-18 -0.209804 9.57143e-25 -5.59938e-24 -0.000290863 3.7129e-17 6.34674e-18 -1.16607e-32 0.001415 
2814 1 0.0624335 0.0274639 0.00618579 0 0 0 1.42421e-19 7.22631e-19 -0.209804 -1.26551e-25 -6.42111e-25 -0.000290863 1.17367e-18 -2.31315e-19 1.95782e-33 0.001415 
8777 1 0.0130109 0.0334818 0.00600276 0 0 0 3.96841e-18 -6.67869e-18 -0.209804 -3.52623e-24 5.93451e-24 -0.000290863 -4.38812e-16 -2.60738e-16 3.60252e-31 0.001415 
4641 1 -0.00200478 0.0474767 0.00530734 0 0 0 -2.1065e-18 1.13426e-18 -0.209804 1.87178e-24 -1.00787e-24 -0.000290863 5.34899e-18 9.93394e-18 -2.46552e-33 0.001415 
5122 1 -0.00838197 -0.0644234 0.00834955 0 0 0 7.58752e-19 2.67078e-19 -0.209804 -6.26351e-21 -2.20474e-21 -0.000290863 1.82094e-17 -5.17316e-17 -3.53445e-31 0.001415 
8780 1 0.0123897 -0.0385353 0.00869288 0 0 0 1.02513e-17 4.6766e-18 -0.209804 3.01493e-19 1.37539e-19 -0.000290863 -6.80365e-16 1.49139e-15 9.70997e-31 0.001415 
166 1 0.0235813 -0.0390227 0.00730899 0 0 0 -4.02831e-19 -5.3768e-18 -0.209804 -1.61873e-20 -2.1606e-19 -0.000290863 -2.22113e-17 1.66407e-18 1.20589e-30 0.001415 
1407 1 0.0135434 -0.0200891 0.00750703 0 0 0 -6.80121e-19 -1.98971e-19 -0.209804 6.04338e-25 1.768e-25 -0.000290863 -4.80092e-19 1.64105e-18 -6.54914e-34 0.001415 
8589 1 -0.0402517 -0.0187189 0.00761399 0 0 0 5.78211e-20 -7.63606e-19 -0.209804 -5.13783e-26 6.7852e-25 -0.000290863 3.63299e-18 2.75094e-19 -1.53638e-32 0.001415 
5438 1 0.0249608 -0.0142584 0.00765432 0 0 0 1.16639e-18 -2.21631e-18 -0.209804 -1.03642e-24 1.96936e-24 -0.000290863 -4.60914e-16 -2.42567e-16 -2.9515e-31 0.001415 
2100 1 -0.012979 -0.0106864 0.00772164 0 0 0 2.11248e-18 3.83287e-19 -0.209804 -1.8771e-24 -3.40579e-25 -0.000290863 2.96335e-18 -1.63325e-17 7.00636e-32 0.001415 
9889 1 -0.0544321 -0.00468185 0.00821379 0 0 0 -9.12052e-19 1.13914e-18 -0.209804 8.10425e-25 -1.01221e-24 -0.000290863 -6.00756e-18 -4.80996e-18 -3.20224e-34 0.001415 
4517 1 0.00302288 -0.0055796 0.0085855 0 0 0 1.07235e-18 -1.28017e-18 -0.209804 -9.5286e-25 1.13752e-24 -0.000290863 4.69486e-18 3.93271e-18 -1.24823e-32 0.001415 
7477 1 0.00556963 0.00632744 0.0084544 0 0 0 0 0 -0.209804 0 0 -0.000290863 0 0 0 0.001415 
6446 1 -0.0505093 0.0104969 0.00840396 0 0 0 -3.46402e-19 4.21998e-19 -0.209804 -4.26202e-20 5.19214e-20 -0.000290863 -5.62139e-18 -4.61438e-18 1.37371e-31 0.001415 
5819 1 0.0733204 0.0105822 0.00814201 0 0 0 -2.36871e-19 2.27673e-19 -0.209804 2.10477e-25 -2.02304e-25 -0.000290863 -2.53202e-19 -2.63431e-19 -1.71796e-34 0.001415 
4368 1 0.0417993 0.0124877 0.00868281 0 0 0 0 0 -0.209804 0 0 -0.000290863 0 0 0 0.001415 
1281 1 -0.00910888 0.0220965 0.00718402 0 0 0 -7.20067e-19 -2.66734e-19 -0.209804 6.39833e-25 2.37013e-25 -0.000290863 -8.98046e-19 2.42434e-18 -9.39185e-34 0.001415 
4220 1 0.00732219 0.0249892 0.00858078 0 0 0 5.50843e-19 -4.07108e-18 -0.209804 1.72212e-20 -1.27276e-19 -0.000290863 -3.66541e-17 -4.95953e-18 -4.21035e-32 0.001415 
2813 1 0.0621842 0.0261988 0.00870497 0 0 0 4.10667e-19 2.08369e-18 -0.209804 1.65377e-20 8.3911e-20 -0.000290863 -1.46601e-17 2.8893e-18 -4.79035e-32 0.001415 
8776 1 0.0132433 0.0330907 0.00879595 0 0 0 -1.35847e-19 2.28625e-19 -0.209804 -1.00517e-20 1.69166e-20 -0.000290863 -4.5823e-18 -2.72276e-18 5.66022e-32 0.001415 
3969 1 -0.0266131 0.0377733 0.00820126 0 0 0 -5.84027e-18 1.82711e-17 -0.209804 -1.69108e-19 5.29049e-19 -0.000290863 -1.41663e-15 -4.5282e-16 5.55602e-31 0.001415 
7875 1 -0.0151895 0.0366812 0.00860219 0 0 0 1.56033e-18 1.84563e-18 -0.209804 4.52661e-20 5.35428e-20 -0.000290863 6.75193e-17 -5.70822e-17 -1.33964e-32 0.001415 
484 1 0.0153265 0.0412785 0.00727344 0 0 0 2.8539e-18 -2.41896e-18 -0.209804 -2.5359e-24 2.14943e-24 -0.000290863 -1.26421e-17 -1.49152e-17 1.11469e-32 0.001415 
4097 1 0.0483957 0.0416236 0.00728143 0 0 0 -3.25886e-18 1.10808e-18 -0.209804 -1.36737e-19 4.64935e-20 -0.000290863 -4.60081e-17 -1.35309e-16 1.54359e-31 0.001415 
4640 1 -0.000842548 0.0468509 0.00781064 0 0 0 2.10619e-18 -1.13409e-18 -0.209804 -1.28907e-20 6.94108e-21 -0.000290863 5.28001e-18 9.80584e-18 -2.75711e-33 0.001415 
7350 1 0.0388042 0.0484249 0.0075145 0 0 0 -4.44046e-21 -7.50923e-20 -0.209804 3.94568e-27 6.6725e-26 -0.000290863 2.59572e-19 -1.53494e-20 3.67282e-36 0.001415 
6406 1 -0.013834 -0.0547628 0.0100013 0 0 0 5.83796e-18 -1.70199e-18 -0.209804 1.69418e-19 -4.9392e-20 -0.000290863 -4.56842e-17 -1.567e-16 -8.15354e-31 0.001415 
4747 1 -0.048396 -0.0516837 0.01079 0 0 0 -1.73321e-17 2.53415e-18 -0.209804 -5.04324e-19 7.3738e-20 -0.000290863 -1.11181e-16 -7.60411e-16 -2.46622e-32 0.001415 
8904 1 0.00698378 -0.051284 0.0103094 0 0 0 0 0 -0.209804 0 0 -0.000290863 0 0 0 0.001415 
9219 1 -0.0350531 -0.0474779 0.00907316 0 0 0 0 0 -0.209804 0 0 -0.000290863 0 0 0 0.001415 
8295 1 0.0424827 -0.0477148 0.00934088 0 0 0 0 0 -0.209804 0 0 -0.000290863 0 0 0 0.001415 
165 1 0.0235443 -0.0395164 0.0100953 0 0 0 1.81949e-20 2.42858e-19 -0.209804 4.3855e-21 5.85356e-20 -0.000290863 1.88624e-16 -1.41318e-17 3.43343e-30 0.001415 
6551 1 -0.00658842 -0.0296093 0.00958407 0 0 0 9.75546e-19 -1.58113e-19 -0.209804 5.14097e-20 -8.33231e-21 -0.000290863 -6.6807e-18 -4.12194e-17 3.21821e-33 0.001415 
9787 1 -0.0202299 -0.023698 0.0103992 0 0 0 -2.44842e-18 -3.04453e-18 -0.209804 -7.16213e-20 -8.90588e-20 -0.000290863 -7.45449e-17 5.99492e-17 -1.0459e-31 0.001415 
1406 1 0.0148736 -0.0197 0.00997444 0 0 0 6.80121e-19 1.98971e-19 -0.209804 -6.04338e-25 -1.768e-25 -0.000290863 -4.80092e-19 1.64105e-18 -6.54914e-34 0.001415 
8588 1 -0.0403296 -0.0176897 0.0102491 0 0 0 1.51614e-18 -2.00227e-17 -0.209804 5.47094e-20 -7.22511e-19 -0.000290863 6.09177e-16 4.61276e-17 2.54625e-30 0.001415 
8820 1 0.00980992 -0.0172644 0.0105769 0 0 0 0 0 -0.209804 0 0 -0.000290863 0 0 0 0.001415 
3529 1 0.0670132 -0.0166749 0.0108768 0 0 0 0 0 -0.209804 0 0 -0.000290863 0 0 0 0.001415 
4473 1 -0.0215554 -0.0144106 0.0103535 0 0 0 0 0 -0.209804 0 0 -0.000290863 0 0 0 0.001415 
5437 1 0.0244153 -0.0132218 0.0102305 0 0 0 2.86679e-18 -5.44732e-18 -0.209804 1.38852e-19 -2.63839e-19 -0.000290863 2.31662e-16 1.21918e-16 5.78846e-31 0.001415 
2099 1 -0.0146787 -0.0109948 0.00996321 0 0 0 3.06149e-19 5.55475e-20 -0.209804 7.09136e-20 1.28665e-20 -0.000290863 8.74119e-18 -4.8177e-17 1.28558e-31 0.001415 
3528 1 0.0516347 -0.000942708 0.00966548 0 0 0 -6.52816e-18 -2.96901e-18 -0.209804 -1.89227e-19 -8.60604e-20 -0.000290863 -9.14795e-17 2.01142e-16 1.79942e-30 0.001415 
2457 1 0.0227749 0.00368251 0.00998847 0 0 0 0 0 -0.209804 0 0 -0.000290863 0 0 0 0.001415 
6445 1 -0.0495051 0.00927345 0.0107499 0 0 0 -1.10832e-20 1.35019e-20 -0.209804 -1.66196e-21 2.02466e-21 -0.000290863 -3.57796e-17 -2.937e-17 7.36468e-32 0.001415 
4431 1 -0.0620527 0.012605 0.0107444 0 0 0 -1.10729e-17 2.36543e-18 -0.209804 -4.29186e-19 9.16837e-20 -0.000290863 -2.09047e-16 -9.78579e-16 -3.12067e-30 0.001415 
4346 1 0.0459771 0.0129104 0.00926095 0 0 0 -3.34752e-18 -1.17659e-18 -0.209804 -1.18321e-19 -4.15874e-20 -0.000290863 -3.97158e-17 1.12996e-16 -1.50682e-31 0.001415 
5820 1 0.0722357 0.0116248 0.0105389 0 0 0 3.28157e-18 -3.15414e-18 -0.209804 9.52151e-20 -9.15176e-20 -0.000290863 -1.01872e-16 -1.05988e-16 -4.90077e-31 0.001415 
9995 1 -0.0283179 0.0187371 0.00922028 0 0 0 1.75263e-18 1.67428e-18 -0.209804 -1.55734e-24 -1.48773e-24 -0.000290863 -7.58374e-18 7.93862e-18 1.07773e-32 0.001415 
1280 1 -0.00826091 0.0224106 0.00986566 0 0 0 7.20067e-19 2.66734e-19 -0.209804 -6.39833e-25 -2.37013e-25 -0.000290863 -8.98046e-19 2.42434e-18 -9.39185e-34 0.001415 
3551 1 0.0378271 0.027027 0.00929668 0 0 0 1.07717e-18 -6.30153e-18 -0.209804 -9.57143e-25 5.59938e-24 -0.000290863 3.7129e-17 6.34674e-18 -1.16607e-32 0.001415 
3968 1 -0.0261983 0.0364757 0.0106818 0 0 0 5.84027e-18 -1.82711e-17 -0.209804 1.69108e-19 -5.29049e-19 -0.000290863 -1.41663e-15 -4.5282e-16 5.55602e-31 0.001415 
9745 1 -0.0323504 0.0411674 0.0099881 0 0 0 0 0 -0.209804 0 0 -0.000290863 0 0 0 0.001415 
485 1 0.0142511 0.04219 0.00972733 0 0 0 -2.8539e-18 2.41896e-18 -0.209804 2.5359e-24 -2.14943e-24 -0.000290863 -1.26421e-17 -1.49152e-17 1.11469e-32 0.001415 
4098 1 0.0474587 0.0419422 0.00993272 0 0 0 -1.1326e-19 3.85108e-20 -0.209804 3.92754e-20 -1.33545e-20 -0.000290863 -1.32671e-18 -3.90183e-18 -9.66049e-32 0.001415 
4639 1 0.000319678 0.0462251 0.0103139 0 0 0 -5.82662e-18 3.13738e-18 -0.209804 -1.56563e-19 8.43023e-20 -0.000290863 1.04049e-16 1.93236e-16 -5.1668e-31 0.001415 
7349 1 0.0388392 0.0490157 0.0102819 0 0 0 -2.35051e-19 -3.97493e-18 -0.209804 -1.04449e-20 -1.76633e-19 -0.000290863 -4.81299e-16 2.84609e-17 -4.66162e-31 0.001415 
3318 1 0.0108764 -0.0748018 0.012371 0 0 0 0 0 -0.209804 0 0 -0.000290863 0 0 0 0.001415 
5121 1 -0.0078553 -0.064238 0.0111239 0 0 0 -2.84432e-18 -1.00119e-18 -0.209804 -1.30677e-19 -4.59978e-20 -0.000290863 -2.24304e-16 6.37233e-16 1.13962e-29 0.001415 
6407 1 -0.0157638 -0.0542001 0.0119933 0 0 0 -5.83796e-18 1.70199e-18 -0.209804 -1.69418e-19 4.9392e-20 -0.000290863 -4.56842e-17 -1.567e-16 -8.15354e-31 0.001415 
4748 1 -0.0463698 -0.05198 0.0127435 0 0 0 1.02129e-17 -1.49324e-18 -0.209804 2.00319e-19 -2.9289e-20 -0.000290863 -3.10035e-16 -2.12046e-15 1.48905e-30 0.001415 
8903 1 0.00719176 -0.0530399 0.0125191 0 0 0 -6.66269e-19 5.62495e-18 -0.209804 -3.27501e-20 2.76492e-19 -0.000290863 -9.52985e-16 -1.1288e-16 8.6691e-30 0.001415 
8421 1 -0.0125515 -0.050364 0.0121965 0 0 0 0 0 -0.209804 0 0 -0.000290863 0 0 0 0.001415 
5040 1 0.0412118 -0.051077 0.0117737 0 0 0 0 0 -0.209804 0 0 -0.000290863 0 0 0 0.001415 
9218 1 -0.0344149 -0.0491301 0.0112804 0 0 0 -1.98012e-18 5.12547e-18 -0.209804 -9.6114e-20 2.48788e-19 -0.000290863 -6.59064e-16 -2.54615e-16 4.36625e-30 0.001415 
8294 1 0.0417911 -0.0460756 0.0115417 0 0 0 0 0 -0.209804 0 0 -0.000290863 0 0 0 0.001415 
8781 1 0.0111727 -0.0390904 0.0111868 0 0 0 -1.03662e-17 -4.72901e-18 -0.209804 -3.01493e-19 -1.37539e-19 -0.000290863 -6.79957e-16 1.4905e-15 9.71497e-31 0.001415 
7141 1 -0.0440609 -0.0300013 0.0127342 0 0 0 0 0 -0.209804 0 0 -0.000290863 0 0 0 0.001415 
6550 1 -0.00716818 -0.0295154 0.0123525 0 0 0 -1.76973e-18 2.86832e-19 -0.209804 -5.1409e-20 8.33219e-21 -0.000290863 -6.21219e-18 -3.83287e-17 3.42232e-33 0.001415 
9788 1 -0.0191042 -0.0222982 0.0125861 0 0 0 4.20961e-19 5.23451e-19 -0.209804 -4.94104e-20 -6.14402e-20 -0.000290863 8.27386e-16 -6.65386e-16 2.01184e-29 0.001415 
1405 1 0.0162037 -0.0193109 0.0124419 0 0 0 -9.95737e-18 -2.91305e-18 -0.209804 -4.06724e-19 -1.18988e-19 -0.000290863 2.43643e-16 -8.32821e-16 4.5194e-30 0.001415 
8819 1 0.00974619 -0.0192248 0.0126169 0 0 0 4.39579e-19 1.35201e-17 -0.209804 1.70374e-20 5.24017e-19 -0.000290863 -3.26688e-16 1.06216e-17 -7.69494e-30 0.001415 
4472 1 -0.0211077 -0.0159411 0.0126915 0 0 0 -5.42704e-18 1.85512e-17 -0.209804 -1.9401e-19 6.63182e-19 -0.000290863 -2.25934e-15 -6.60958e-16 -6.52033e-30 0.001415 
4389 1 -0.00210167 -0.0164576 0.0113835 0 0 0 1.12355e-18 -5.47718e-19 -0.209804 6.64658e-20 -3.24013e-20 -0.000290863 -1.83229e-16 -3.75864e-16 -7.61494e-31 0.001415 
2098 1 -0.0163785 -0.0113032 0.0122048 0 0 0 -2.41863e-18 -4.38835e-19 -0.209804 -7.09117e-20 -1.28662e-20 -0.000290863 5.77784e-18 -3.18445e-17 5.84945e-32 0.001415 
4518 1 0.00403554 -0.00678852 0.0109354 0 0 0 -6.9586e-18 8.30717e-18 -0.209804 -2.68889e-19 3.20999e-19 -0.000290863 -5.72174e-16 -4.79289e-16 -2.17518e-29 0.001415 
9888 1 -0.0548111 -0.00420847 0.0109781 0 0 0 1.4311e-18 -1.78742e-18 -0.209804 7.2748e-20 -9.08611e-20 -0.000290863 -3.94354e-16 -3.1574e-16 -4.21715e-30 0.001415 
3527 1 0.053278 -0.000195356 0.011845 0 0 0 6.52816e-18 2.96901e-18 -0.209804 1.89227e-19 8.60604e-20 -0.000290863 -9.14795e-17 2.01142e-16 1.79942e-30 0.001415 
4852 1 -0.0576017 0.00160357 0.0126059 0 0 0 3.07475e-18 5.04502e-18 -0.209804 1.47341e-19 2.41755e-19 -0.000290863 -1.45789e-16 8.88531e-17 2.45196e-29 0.001415 
2456 1 0.0231999 0.00341526 0.0127736 0 0 0 -1.2903e-16 8.11436e-17 -0.209804 -2.64016e-18 1.66032e-18 -0.000290863 -4.98214e-16 -7.92234e-16 -1.04963e-30 0.001415 
1470 1 -0.0541433 0.00552442 0.0112256 0 0 0 7.98815e-18 7.69781e-18 -0.209804 3.27659e-19 3.1575e-19 -0.000290863 -7.34472e-16 7.62174e-16 2.52933e-29 0.001415 
7478 1 0.0063252 0.00556124 0.0110718 0 0 0 0 0 -0.209804 0 0 -0.000290863 0 0 0 0.001415 
5545 1 -0.0302182 0.00727945 0.011366 0 0 0 0 0 -0.209804 0 0 -0.000290863 0 0 0 0.001415 
4367 1 0.0426483 0.0117219 0.0112716 0 0 0 -3.11314e-18 2.80828e-18 -0.209804 -1.58061e-19 1.42583e-19 -0.000290863 1.52052e-16 1.68558e-16 1.3396e-30 0.001415 
4345 1 0.0473197 0.0133822 0.0117071 0 0 0 4.07583e-18 1.43257e-18 -0.209804 1.1832e-19 4.15872e-20 -0.000290863 -3.94472e-17 1.12232e-16 -1.5065e-31 0.001415 
9994 1 -0.0272948 0.0197145 0.0116711 0 0 0 -7.40533e-18 -7.07429e-18 -0.209804 -2.96342e-19 -2.83095e-19 -0.000290863 5.80221e-16 -6.07373e-16 9.0205e-30 0.001415 
1279 1 -0.00741294 0.0227247 0.0125473 0 0 0 -8.8287e-18 -3.27041e-18 -0.209804 -3.48608e-19 -1.29135e-19 -0.000290863 -1.29047e-16 3.48371e-16 -2.00052e-30 0.001415 
2812 1 0.0619348 0.0249338 0.0112242 0 0 0 5.84961e-19 2.96804e-18 -0.209804 3.74888e-20 1.90215e-19 -0.000290863 4.78399e-16 -9.42859e-17 -9.87063e-30 0.001415 
4219 1 0.00713294 0.0263879 0.0110337 0 0 0 4.09541e-19 -3.02677e-18 -0.209804 2.64367e-20 -1.95385e-19 -0.000290863 3.21233e-16 4.34649e-17 -1.37731e-31 0.001415 
3552 1 0.038076 0.0255707 0.0117104 0 0 0 -3.90233e-19 2.2829e-18 -0.209804 -2.28243e-20 1.33524e-19 -0.000290863 -4.59449e-16 -7.85371e-17 9.47523e-30 0.001415 
9955 1 0.0480973 0.0295036 0.0120058 0 0 0 0 0 -0.209804 0 0 -0.000290863 0 0 0 0.001415 
6216 1 -0.023401 0.0310553 0.0111031 0 0 0 -9.82685e-19 -4.56905e-18 -0.209804 -2.8839e-20 -1.34089e-19 -0.000290863 -8.15636e-17 1.75422e-17 -3.37608e-31 0.001415 
8775 1 0.0134757 0.0326995 0.0115891 0 0 0 -1.5466e-19 2.60286e-19 -0.209804 -1.90014e-20 3.19786e-20 -0.000290863 2.87468e-16 1.7081e-16 -1.33919e-30 0.001415 
7874 1 -0.0157052 0.0360712 0.0113171 0 0 0 -1.56033e-18 -1.84563e-18 -0.209804 -4.52661e-20 -5.35428e-20 -0.000290863 6.75193e-17 -5.70822e-17 -1.33964e-32 0.001415 
4099 1 0.0465216 0.0422608 0.012584 0 0 0 -1.34634e-18 4.57785e-19 -0.209804 -3.92741e-20 1.33541e-20 -0.000290863 1.94059e-19 5.70724e-19 -9.51429e-32 0.001415 
9746 1 -0.0326219 0.0429159 0.0121967 0 0 0 1.11815e-18 -7.20131e-18 -0.209804 5.15063e-20 -3.31719e-19 -0.000290863 1.0424e-15 1.61855e-16 -8.2494e-30 0.001415 
486 1 0.0131757 0.0431015 0.0121812 0 0 0 1.17773e-17 -9.98242e-18 -0.209804 4.35318e-19 -3.68975e-19 -0.000290863 1.4501e-15 1.71083e-15 9.22336e-30 0.001415 
8316 1 0.0241447 0.055508 0.0127488 0 0 0 0 0 -0.209804 0 0 -0.000290863 0 0 0 0.001415 
6048 1 -0.0014895 0.0671831 0.0115964 0 0 0 -6.52908e-18 -3.92347e-19 -0.209804 -3.08623e-19 -1.85458e-20 -0.000290863 2.0707e-17 -3.44588e-16 1.80933e-31 0.001415 
3317 1 0.00879117 -0.0741345 0.0141642 0 0 0 3.65293e-16 -1.16899e-16 -0.209804 1.19893e-17 -3.83673e-18 -0.000290863 2.90339e-16 9.0727e-16 -3.63434e-30 0.001415 
4537 1 0.0348065 -0.0668743 0.0141421 0 0 0 1.19494e-16 -2.32707e-16 -0.209804 3.96491e-18 -7.72139e-18 -0.000290863 3.62612e-15 1.862e-15 -2.73745e-29 0.001415 
5120 1 -0.00732864 -0.0640527 0.0138983 0 0 0 -1.46149e-16 -5.1444e-17 -0.209804 -4.78399e-18 -1.68395e-18 -0.000290863 6.9649e-16 -1.97868e-15 1.14344e-29 0.001415 
4749 1 -0.0443437 -0.0522762 0.0146969 0 0 0 -2.68825e-16 3.93053e-17 -0.209804 -8.74654e-18 1.27884e-18 -0.000290863 2.42784e-16 1.6605e-15 4.30297e-30 0.001415 
6408 1 -0.0176936 -0.0536375 0.0139854 0 0 0 3.92173e-16 -1.14334e-16 -0.209804 1.29269e-17 -3.76871e-18 -0.000290863 4.20528e-16 1.44244e-15 6.69001e-29 0.001415 
9217 1 -0.0337766 -0.0507822 0.0134877 0 0 0 -1.24197e-16 3.21479e-16 -0.209804 -4.04802e-18 1.04782e-17 -0.000290863 -9.10846e-16 -3.51886e-16 5.94662e-29 0.001415 
5039 1 0.0393096 -0.0515993 0.0138029 0 0 0 3.57426e-16 9.81419e-17 -0.209804 1.17607e-17 3.22924e-18 -0.000290863 -2.95627e-16 1.07665e-15 1.62767e-29 0.001415 
8420 1 -0.0130316 -0.0490822 0.0146735 0 0 0 1.18602e-16 -3.16691e-16 -0.209804 3.91157e-18 -1.04447e-17 -0.000290863 1.82254e-15 6.82546e-16 2.46136e-30 0.001415 
8293 1 0.0410995 -0.0444363 0.0137425 0 0 0 1.55991e-16 -3.69727e-16 -0.209804 5.16833e-18 -1.22499e-17 -0.000290863 -2.44346e-15 -1.03092e-15 5.34763e-29 0.001415 
8782 1 0.00995582 -0.0396456 0.0136808 0 0 0 2.66887e-16 1.21752e-16 -0.209804 8.81936e-18 4.02334e-18 -0.000290863 5.64022e-16 -1.23636e-15 -6.02801e-30 0.001415 
164 1 0.0235073 -0.0400101 0.0128817 0 0 0 9.79562e-18 1.30747e-16 -0.209804 3.18926e-19 4.25687e-18 -0.000290863 -1.9099e-15 1.4309e-16 4.33943e-30 0.001415 
1765 1 -0.00582286 -0.0341936 0.0144356 0 0 0 3.04708e-16 -9.53548e-17 -0.209804 1.01006e-17 -3.16087e-18 -0.000290863 -6.61132e-16 -2.11266e-15 -3.64685e-29 0.001415 
2898 1 -0.0015393 -0.0260351 0.0147078 0 0 0 2.22405e-16 -4.39048e-17 -0.209804 7.35631e-18 -1.45221e-18 -0.000290863 4.93173e-16 2.49822e-15 -1.97472e-30 0.001415 
1113 1 0.057839 -0.0250229 0.0135644 0 0 0 3.3361e-16 1.71157e-16 -0.209804 1.08883e-17 5.58618e-18 -0.000290863 2.82411e-16 -5.5046e-16 -1.10644e-28 0.001415 
2604 1 -0.0264828 -0.0239558 0.0144323 0 0 0 3.13535e-16 -1.36511e-17 -0.209804 1.03689e-17 -4.51456e-19 -0.000290863 -1.04034e-16 -2.38941e-15 6.33758e-30 0.001415 
8818 1 0.00968245 -0.0211851 0.014657 0 0 0 1.10273e-17 3.39167e-16 -0.209804 3.64021e-19 1.11961e-17 -0.000290863 -1.25128e-15 4.06829e-17 -8.59768e-30 0.001415 
3530 1 0.0663652 -0.0174708 0.0135142 0 0 0 2.11298e-16 2.59515e-16 -0.209804 6.91545e-18 8.49355e-18 -0.000290863 -2.33123e-15 1.89809e-15 -4.17276e-29 0.001415 
8587 1 -0.0404076 -0.0166605 0.0128841 0 0 0 1.78596e-17 -2.3586e-16 -0.209804 6.12985e-19 -8.09529e-18 -0.000290863 2.80854e-15 2.12666e-16 2.79434e-30 0.001415 
4388 1 -0.00265555 -0.0161876 0.0141456 0 0 0 1.49242e-16 -7.27539e-17 -0.209804 4.91333e-18 -2.39519e-18 -0.000290863 9.05218e-16 1.8569e-15 -4.14698e-30 0.001415 
2097 1 -0.0180782 -0.0116116 0.0144464 0 0 0 3.63414e-16 6.59375e-17 -0.209804 1.19309e-17 2.16473e-18 -0.000290863 3.61022e-16 -1.98977e-15 -4.60436e-29 0.001415 
5436 1 0.0238697 -0.0121851 0.0128067 0 0 0 -1.64285e-18 3.12166e-18 -0.209804 -8.60691e-22 1.63544e-21 -0.000290863 4.02211e-16 2.11674e-16 -9.79103e-30 0.001415 
4519 1 0.0050482 -0.00799743 0.0132853 0 0 0 -1.72293e-16 2.05683e-16 -0.209804 -5.67443e-18 6.77413e-18 -0.000290863 -8.93585e-16 -7.48522e-16 -7.08461e-30 0.001415 
9887 1 -0.0551901 -0.00373509 0.0137423 0 0 0 1.04755e-16 -1.30837e-16 -0.209804 3.42054e-18 -4.27219e-18 -0.000290863 1.72259e-15 1.37919e-15 -7.97086e-30 0.001415 
4853 1 -0.0586257 -7.65915e-05 0.01464 0 0 0 1.88278e-16 3.08925e-16 -0.209804 6.17378e-18 1.01299e-17 -0.000290863 -2.51876e-15 1.53509e-15 1.61323e-29 0.001415 
9744 1 -0.0476714 0.00124731 0.0135265 0 0 0 1.44954e-18 1.65114e-18 -0.209804 7.91603e-20 9.01702e-20 -0.000290863 -5.45932e-17 4.79273e-17 2.17053e-29 0.001415 
3403 1 0.0399954 0.00144601 0.0136615 0 0 0 -3.09725e-16 1.46569e-17 -0.209804 -1.01693e-17 4.81233e-19 -0.000290863 -6.79295e-17 -1.43547e-15 5.30112e-30 0.001415 
3526 1 0.0549212 0.000551996 0.0140244 0 0 0 -3.67069e-16 -1.66943e-16 -0.209804 -1.20798e-17 -5.4939e-18 -0.000290863 -1.0266e-15 2.25727e-15 -1.65695e-28 0.001415 
3843 1 -0.0432547 0.00201405 0.014247 0 0 0 2.93263e-16 1.99818e-16 -0.209804 9.60067e-18 6.54154e-18 -0.000290863 -1.21519e-17 1.78346e-17 4.07457e-29 0.001415 
6238 1 0.0476834 0.00358837 0.0137825 0 0 0 3.74591e-16 -2.41018e-16 -0.209804 1.23692e-17 -7.95858e-18 -0.000290863 3.10139e-16 4.82019e-16 -2.97588e-29 0.001415 
1469 1 -0.0554428 0.00427207 0.0134054 0 0 0 2.61264e-16 2.51768e-16 -0.209804 5.38877e-18 5.1929e-18 -0.000290863 1.06455e-16 -1.1047e-16 -4.45432e-29 0.001415 
7479 1 0.00708078 0.00479504 0.0136893 0 0 0 -1.96471e-16 1.99234e-16 -0.209804 -6.51166e-18 6.60323e-18 -0.000290863 -1.93325e-15 -1.90644e-15 -4.47331e-29 0.001415 
6444 1 -0.0485008 0.00805 0.0130959 0 0 0 -3.44146e-18 4.1925e-18 -0.209804 -1.85094e-19 2.25488e-19 -0.000290863 -8.32994e-16 -6.83771e-16 -2.42962e-29 0.001415 
5546 1 -0.0286421 0.00814112 0.0135528 0 0 0 -3.72566e-16 -2.03687e-16 -0.209804 -1.22928e-17 -6.72063e-18 -0.000290863 -1.53772e-15 2.81266e-15 -1.36535e-28 0.001415 
7897 1 0.0202104 0.0106666 0.0129487 0 0 0 2.02226e-18 9.63932e-18 -0.209804 8.42827e-20 4.01742e-19 -0.000290863 7.42714e-17 -1.55816e-17 1.12004e-29 0.001415 
4366 1 0.0434972 0.010956 0.0138603 0 0 0 -2.22426e-16 2.00645e-16 -0.209804 -7.25691e-18 6.54626e-18 -0.000290863 -1.44894e-15 -1.60623e-15 5.27246e-30 0.001415 
4430 1 -0.0607358 0.0123237 0.0132335 0 0 0 -2.66538e-16 5.69386e-17 -0.209804 -8.69851e-18 1.8582e-18 -0.000290863 -1.91302e-16 -8.95513e-16 1.3674e-29 0.001415 
5821 1 0.071151 0.0126674 0.0129359 0 0 0 -3.28157e-18 3.15414e-18 -0.209804 -9.52151e-20 9.15176e-20 -0.000290863 -1.01872e-16 -1.05988e-16 -4.90077e-31 0.001415 
4344 1 0.0486622 0.0138541 0.0141533 0 0 0 -3.31874e-16 -1.16647e-16 -0.209804 -1.09367e-17 -3.84402e-18 -0.000290863 3.82448e-16 -1.08811e-15 6.29521e-29 0.001415 
5629 1 -0.00809486 0.0186934 0.0140266 0 0 0 3.24414e-16 5.67517e-18 -0.209804 1.05745e-17 1.84985e-19 -0.000290863 6.0725e-17 -3.47127e-15 2.2778e-30 0.001415 
9993 1 -0.0262716 0.020692 0.014122 0 0 0 -2.07369e-16 -1.98099e-16 -0.209804 -6.78589e-18 -6.48254e-18 -0.000290863 -6.91515e-16 7.23875e-16 3.43238e-29 0.001415 
3553 1 0.038325 0.0241144 0.0141242 0 0 0 -4.87465e-17 2.85172e-16 -0.209804 -1.59118e-18 9.30854e-18 -0.000290863 2.72649e-16 4.66059e-17 1.38768e-29 0.001415 
2811 1 0.0616855 0.0236687 0.0137433 0 0 0 6.39344e-17 3.24398e-16 -0.209804 2.09609e-18 1.06354e-17 -0.000290863 -3.22153e-15 6.34919e-16 -2.29374e-29 0.001415 
4218 1 0.00694369 0.0277865 0.0134866 0 0 0 4.1375e-17 -3.05788e-16 -0.209804 1.35238e-18 -9.99496e-18 -0.000290863 -4.26337e-16 -5.7686e-17 1.53778e-30 0.001415 
9956 1 0.047731 0.0274693 0.0139388 0 0 0 6.42424e-17 3.56789e-16 -0.209804 2.10667e-18 1.17e-17 -0.000290863 -1.49159e-15 2.68572e-16 5.1626e-30 0.001415 
6007 1 0.0347873 0.0296881 0.0137087 0 0 0 9.80387e-17 1.0985e-16 -0.209804 3.25382e-18 3.64583e-18 -0.000290863 -1.62171e-15 1.44734e-15 1.34656e-29 0.001415 
8774 1 0.0137081 0.0323084 0.0143823 0 0 0 -6.53057e-17 1.09907e-16 -0.209804 -2.14213e-18 3.60513e-18 -0.000290863 -1.60745e-15 -9.55133e-16 1.8859e-30 0.001415 
6215 1 -0.0229502 0.0331509 0.0129508 0 0 0 7.40091e-20 3.4411e-19 -0.209804 -1.77738e-20 -8.26405e-20 -0.000290863 6.49216e-16 -1.39629e-16 -5.29469e-30 0.001415 
3967 1 -0.0257836 0.0351781 0.0131623 0 0 0 -1.09256e-16 3.41802e-16 -0.209804 -3.62226e-18 1.13321e-17 -0.000290863 -1.9103e-15 -6.10618e-16 1.54665e-29 0.001415 
7873 1 -0.0162209 0.0354611 0.014032 0 0 0 1.42743e-16 1.68843e-16 -0.209804 4.69494e-18 5.55338e-18 -0.000290863 -3.17082e-15 2.68067e-15 4.34144e-30 0.001415 
6847 1 -0.0500743 0.0395872 0.0141887 0 0 0 -3.54126e-16 1.52742e-16 -0.209804 -1.15875e-17 4.99795e-18 -0.000290863 1.15032e-15 2.66697e-15 -6.37875e-29 0.001415 
487 1 0.0121003 0.044013 0.0146351 0 0 0 2.13309e-16 -1.80801e-16 -0.209804 7.01648e-18 -5.94716e-18 -0.000290863 4.19538e-16 4.94972e-16 1.99002e-29 0.001415 
9747 1 -0.0328934 0.0446643 0.0144054 0 0 0 5.64125e-17 -3.63317e-16 -0.209804 1.85695e-18 -1.19594e-17 -0.000290863 -3.45038e-16 -5.35744e-17 -1.41706e-30 0.001415 
4638 1 0.00148191 0.0455993 0.0128172 0 0 0 3.82638e-18 -2.06034e-18 -0.209804 5.14718e-20 -2.77153e-20 -0.000290863 -4.00223e-17 -7.43279e-17 -2.23882e-31 0.001415 
7348 1 0.0388741 0.0496065 0.0130494 0 0 0 -9.81993e-18 -1.66064e-16 -0.209804 -3.24654e-19 -5.49019e-18 -0.000290863 2.36784e-15 -1.40019e-16 -1.20134e-30 0.001415 
8315 1 0.0261215 0.0546907 0.0146017 0 0 0 -3.55082e-16 1.46801e-16 -0.209804 -1.17844e-17 4.87199e-18 -0.000290863 -7.09146e-16 -1.71528e-15 1.20941e-28 0.001415 
4831 1 0.0293284 0.0560787 0.0132181 0 0 0 3.08729e-16 -1.7162e-16 -0.209804 1.01336e-17 -5.63317e-18 -0.000290863 -5.61871e-16 -1.01076e-15 -4.03752e-29 0.001415 
6909 1 0.00964204 0.0590336 0.0132522 0 0 0 3.45939e-17 -2.08438e-17 -0.209804 1.14163e-18 -6.87862e-19 -0.000290863 1.61686e-15 2.68346e-15 -1.57251e-29 0.001415 
6047 1 -2.16486e-05 0.0672713 0.0140143 0 0 0 -3.58521e-16 -2.15443e-17 -0.209804 -1.16522e-17 -7.00206e-19 -0.000290863 9.38978e-17 -1.56256e-15 -1.34636e-30 0.001415 
7455 1 0.00864732 0.0657086 0.0141607 0 0 0 -1.4915e-17 3.53693e-16 -0.209804 -4.9944e-19 1.18437e-17 -0.000290863 -9.88276e-16 -4.16749e-17 -6.88917e-30 0.001415 
8757 1 0.00829498 0.0765507 0.0136072 0 0 0 0 0 -0.209804 0 0 -0.000290863 0 0 0 0.001415 
3316 1 0.00670592 -0.0734672 0.0159573 0 0 0 -3.65293e-16 1.16899e-16 -0.209804 -1.19893e-17 3.83673e-18 -0.000290863 2.90339e-16 9.0727e-16 -3.63434e-30 0.001415 
2499 1 0.0564696 -0.0568217 0.0161043 0 0 0 3.18244e-18 -7.28118e-18 -0.209804 9.33525e-20 -2.13583e-19 -0.000290863 -1.01898e-16 -4.45373e-17 -1.96924e-31 0.001415 
8902 1 0.00739974 -0.0547957 0.0147288 0 0 0 -4.29063e-17 3.62235e-16 -0.209804 -1.40908e-18 1.18961e-17 -0.000290863 -2.86333e-16 -3.39158e-17 1.76366e-29 0.001415 
4054 1 -0.0359786 -0.0521436 0.0163908 0 0 0 0 0 -0.209804 0 0 -0.000290863 0 0 0 0.001415 
9216 1 -0.0331383 -0.0524344 0.0156949 0 0 0 1.22296e-16 -3.16561e-16 -0.209804 3.98446e-18 -1.03137e-17 -0.000290863 6.62093e-16 2.55785e-16 3.4025e-29 0.001415 
6409 1 -0.0196234 -0.0530749 0.0159774 0 0 0 -3.92173e-16 1.14334e-16 -0.209804 -1.29269e-17 3.76871e-18 -0.000290863 4.20528e-16 1.44244e-15 6.69001e-29 0.001415 
5038 1 0.0374074 -0.0521216 0.0158321 0 0 0 -3.31817e-16 -9.11101e-17 -0.209804 -1.08684e-17 -2.98426e-18 -0.000290863 -1.36571e-16 4.97381e-16 3.52401e-29 0.001415 
8292 1 0.0404079 -0.0427971 0.0159433 0 0 0 -1.52346e-16 3.61088e-16 -0.209804 -5.00716e-18 1.18679e-17 -0.000290863 -2.73997e-15 -1.15602e-15 6.07158e-29 0.001415 
163 1 0.0234703 -0.0405039 0.015668 0 0 0 -9.79522e-18 -1.30742e-16 -0.209804 -3.18862e-19 -4.25603e-18 -0.000290863 -1.64308e-15 1.231e-16 4.78546e-30 0.001415 
8783 1 0.00873888 -0.0402008 0.0161747 0 0 0 -2.62846e-16 -1.19909e-16 -0.209804 -8.61899e-18 -3.93193e-18 -0.000290863 4.936e-16 -1.08199e-15 -1.60805e-30 0.001415 
1766 1 -0.00794199 -0.0335305 0.0161901 0 0 0 -2.83121e-16 8.85992e-17 -0.209804 -9.35036e-18 2.92608e-18 -0.000290863 -6.28032e-16 -2.00689e-15 -1.91393e-29 0.001415 
7142 1 -0.0430179 -0.0310366 0.0151527 0 0 0 -2.36535e-16 2.34785e-16 -0.209804 -7.78945e-18 7.73179e-18 -0.000290863 8.8633e-16 8.92939e-16 -7.65422e-29 0.001415 
6549 1 -0.00774795 -0.0294214 0.0151208 0 0 0 1.71286e-16 -2.77615e-17 -0.209804 5.70003e-18 -9.23841e-19 -0.000290863 3.9638e-16 2.44564e-15 1.38172e-30 0.001415 
1112 1 0.0563793 -0.0257718 0.0158703 0 0 0 -3.3361e-16 -1.71157e-16 -0.209804 -1.08883e-17 -5.58618e-18 -0.000290863 2.82411e-16 -5.5046e-16 -1.10644e-28 0.001415 