ITEM: TIMESTEP
65000
ITEM: NUMBER OF ATOMS
10248
ITEM: BOX BOUNDS ff ff ff
-0.2 0.2
-0.2 0.2
-0.01 0.5
ITEM: ATOMS id type x y z ix iy iz vx vy vz fx fy fz omegax omegay omegaz radius 
5124 1 -0.00943529 -0.0647942 0.00273741 0 0 0 -1.04563e-17 -3.68058e-18 -0.212745 9.35066e-24 3.2914e-24 -0.000290859 2.41027e-16 -6.84742e-16 1.33823e-32 0.001415 
168 1 0.0236553 -0.0380352 0.00167291 0 0 0 6.21792e-18 8.29939e-17 -0.212745 6.68829e-20 8.92723e-19 -0.000290859 -6.99118e-17 5.2378e-18 -6.52836e-31 0.001415 
9891 1 -0.0536741 -0.00562861 0.00262188 0 0 0 6.91721e-18 -8.63948e-18 -0.212745 -6.1858e-24 7.72596e-24 -0.000290859 6.56028e-16 5.2525e-16 -2.86262e-31 0.001415 
8778 1 0.0127785 0.033873 0.00314619 0 0 0 -4.16816e-18 7.01486e-18 -0.212745 3.72743e-24 -6.27313e-24 -0.000290859 -4.39578e-16 -2.61193e-16 3.60367e-31 0.001415 
167 1 0.0236183 -0.0385289 0.00445926 0 0 0 -5.59246e-18 -7.46456e-17 -0.212745 -5.02679e-20 -6.70953e-19 -0.000290859 -2.82622e-17 2.11741e-18 1.74097e-30 0.001415 
5439 1 0.0255064 -0.015295 0.00501476 0 0 0 6.69767e-19 -1.27266e-18 -0.212745 -5.98948e-25 1.13809e-24 -0.000290859 -5.23935e-18 -2.75734e-18 2.2211e-33 0.001415 
4096 1 0.0493328 0.0413049 0.00456677 0 0 0 6.09067e-18 -2.07096e-18 -0.212745 1.34671e-19 -4.57911e-20 -0.000290859 -8.23138e-17 -2.42084e-16 3.44855e-31 0.001415 
5123 1 -0.00890863 -0.0646088 0.00551179 0 0 0 9.51987e-18 3.35096e-18 -0.212745 -8.51326e-24 -2.99664e-24 -0.000290859 2.39578e-16 -6.80624e-16 1.61867e-32 0.001415 
8779 1 0.0136066 -0.0379801 0.00613555 0 0 0 1.14884e-19 5.24095e-20 -0.212745 -1.02737e-25 -4.68679e-26 -0.000290859 -4.07838e-19 8.94001e-19 -5.00789e-34 0.001415 
6552 1 -0.00600865 -0.0297033 0.00675231 0 0 0 7.94178e-19 -1.28718e-19 -0.212745 -7.10204e-25 1.15107e-25 -0.000290859 -4.68502e-19 -2.89062e-18 -2.04106e-34 0.001415 
9890 1 -0.0540531 -0.00515523 0.00538615 0 0 0 -6.00516e-18 7.50035e-18 -0.212745 5.37019e-24 -6.70728e-24 -0.000290859 6.50021e-16 5.2044e-16 -2.86582e-31 0.001415 
4516 1 0.00201022 -0.00437069 0.00617224 0 0 0 -1.07234e-18 1.28016e-18 -0.212745 9.58951e-25 -1.14479e-24 -0.000290859 4.69478e-18 3.93264e-18 -1.24821e-32 0.001415 
5818 1 0.0744051 0.00953964 0.00568168 0 0 0 2.36869e-19 -2.27671e-19 -0.212745 -2.11823e-25 2.03597e-25 -0.000290859 -2.53197e-19 -2.63427e-19 -1.71793e-34 0.001415 
6447 1 -0.0515136 0.0117203 0.00599462 0 0 0 -1.10178e-18 1.34222e-18 -0.212745 9.85276e-25 -1.2003e-24 -0.000290859 4.42264e-18 3.63037e-18 -1.38199e-32 0.001415 
4347 1 0.0446345 0.0124385 0.0067514 0 0 0 -7.28304e-19 -2.55985e-19 -0.212745 6.51295e-25 2.28917e-25 -0.000290859 -2.68518e-19 7.63964e-19 -3.25104e-35 0.001415 
9996 1 -0.0293411 0.0177597 0.00670605 0 0 0 -1.75262e-18 -1.67427e-18 -0.212745 1.5673e-24 1.49724e-24 -0.000290859 -7.58362e-18 7.93849e-18 1.07771e-32 0.001415 
4221 1 0.00751144 0.0235905 0.00606448 0 0 0 3.08447e-20 -2.27962e-19 -0.212745 -2.75832e-26 2.03858e-25 -0.000290859 4.14654e-19 5.61053e-20 1.08555e-34 0.001415 
3550 1 0.0375782 0.0284832 0.00681955 0 0 0 -1.07716e-18 6.30148e-18 -0.212745 9.63262e-25 -5.63517e-24 -0.000290859 3.71284e-17 6.34664e-18 -1.16606e-32 0.001415 
2814 1 0.0624335 0.0274639 0.00612241 0 0 0 1.42419e-19 7.22624e-19 -0.212745 -1.2736e-25 -6.46216e-25 -0.000290859 1.17365e-18 -2.31311e-19 1.95779e-33 0.001415 
8777 1 0.0130109 0.0334818 0.00593938 0 0 0 3.96837e-18 -6.67863e-18 -0.212745 -3.54877e-24 5.97245e-24 -0.000290859 -4.38805e-16 -2.60734e-16 3.60246e-31 0.001415 
4641 1 -0.00200478 0.0474767 0.00524396 0 0 0 -2.10648e-18 1.13425e-18 -0.212745 1.88375e-24 -1.01432e-24 -0.000290859 5.3489e-18 9.93377e-18 -2.46548e-33 0.001415 
5122 1 -0.00838197 -0.0644234 0.00828616 0 0 0 6.91902e-19 2.43547e-19 -0.212745 -6.99248e-21 -2.46133e-21 -0.000290859 3.24463e-17 -9.21778e-17 -6.5075e-31 0.001415 
8780 1 0.0123897 -0.0385353 0.0086295 0 0 0 1.32848e-17 6.06045e-18 -0.212745 2.98447e-19 1.3615e-19 -0.000290859 -1.01864e-15 2.23291e-15 1.87795e-30 0.001415 
166 1 0.0235813 -0.0390227 0.00724561 0 0 0 -5.69233e-19 -7.59786e-18 -0.212745 -1.66151e-20 -2.21771e-19 -0.000290859 4.29132e-17 -3.21507e-18 2.39371e-30 0.001415 
1407 1 0.0135434 -0.0200891 0.00744364 0 0 0 -6.80115e-19 -1.98969e-19 -0.212745 6.08201e-25 1.7793e-25 -0.000290859 -4.80085e-19 1.64102e-18 -6.54903e-34 0.001415 
8589 1 -0.0402517 -0.0187189 0.00755061 0 0 0 5.78206e-20 -7.63599e-19 -0.212745 -5.17068e-26 6.82858e-25 -0.000290859 3.63293e-18 2.7509e-19 -1.53636e-32 0.001415 
5438 1 0.0249608 -0.0142584 0.00759094 0 0 0 1.23467e-18 -2.34606e-18 -0.212745 8.43472e-20 -1.60272e-19 -0.000290859 -4.88034e-16 -2.5684e-16 -3.18102e-31 0.001415 
2100 1 -0.012979 -0.0106864 0.00765826 0 0 0 2.14001e-18 3.88282e-19 -0.212745 -1.91373e-24 -3.47226e-25 -0.000290859 3.0155e-18 -1.66199e-17 7.51398e-32 0.001415 
9889 1 -0.0544321 -0.00468185 0.00815041 0 0 0 -9.12044e-19 1.13913e-18 -0.212745 8.15607e-25 -1.01868e-24 -0.000290859 -6.00746e-18 -4.80988e-18 -3.20218e-34 0.001415 
4517 1 0.00302288 -0.0055796 0.00852212 0 0 0 1.07234e-18 -1.28016e-18 -0.212745 -9.58951e-25 1.14479e-24 -0.000290859 4.69478e-18 3.93264e-18 -1.24821e-32 0.001415 
7477 1 0.00556963 0.00632744 0.00839102 0 0 0 0 0 -0.212745 0 0 -0.000290859 0 0 0 0.001415 
6446 1 -0.0505093 0.0104969 0.00834058 0 0 0 -7.76122e-19 9.45499e-19 -0.212745 -4.23739e-20 5.16214e-20 -0.000290859 -1.63496e-19 -1.34208e-19 2.03494e-31 0.001415 
5819 1 0.0733204 0.0105822 0.00807862 0 0 0 -2.36869e-19 2.27671e-19 -0.212745 2.11823e-25 -2.03597e-25 -0.000290859 -2.53197e-19 -2.63427e-19 -1.71793e-34 0.001415 
4368 1 0.0417993 0.0124877 0.00861943 0 0 0 0 0 -0.212745 0 0 -0.000290859 0 0 0 0.001415 
1281 1 -0.00910888 0.0220965 0.00712064 0 0 0 -7.20061e-19 -2.66732e-19 -0.212745 6.43924e-25 2.38528e-25 -0.000290859 -8.98031e-19 2.4243e-18 -9.3917e-34 0.001415 
4220 1 0.00732219 0.0249892 0.00851739 0 0 0 7.25038e-19 -5.3585e-18 -0.212745 1.72531e-20 -1.27511e-19 -0.000290859 -5.39774e-17 -7.30348e-18 6.06225e-32 0.001415 
2813 1 0.0621842 0.0261988 0.00864159 0 0 0 5.78537e-19 2.93545e-18 -0.212745 1.66884e-20 8.46757e-20 -0.000290859 -3.5476e-17 6.99184e-18 -3.44387e-32 0.001415 
8776 1 0.0132433 0.0330907 0.00873256 0 0 0 -2.3793e-19 4.00427e-19 -0.212745 -1.01516e-20 1.70847e-20 -0.000290859 -1.03483e-17 -6.14888e-18 1.15001e-31 0.001415 
3969 1 -0.0266131 0.0377733 0.00813787 0 0 0 -7.53864e-18 2.35844e-17 -0.212745 -1.66789e-19 5.21795e-19 -0.000290859 -2.06055e-15 -6.58646e-16 1.05495e-30 0.001415 
7875 1 -0.0151895 0.0366812 0.0085388 0 0 0 2.01485e-18 2.38325e-18 -0.212745 4.46314e-20 5.27919e-20 -0.000290859 1.151e-16 -9.73083e-17 -8.76978e-32 0.001415 
484 1 0.0153265 0.0412785 0.00721005 0 0 0 2.85388e-18 -2.41894e-18 -0.212745 -2.55211e-24 2.16317e-24 -0.000290859 -1.26419e-17 -1.49149e-17 1.11467e-32 0.001415 
4097 1 0.0483957 0.0416236 0.00721805 0 0 0 -4.63109e-18 1.57467e-18 -0.212745 -1.34672e-19 4.57916e-20 -0.000290859 -8.38346e-17 -2.46556e-16 3.43393e-31 0.001415 
4640 1 -0.000842548 0.0468509 0.00774725 0 0 0 -1.58478e-19 8.53333e-20 -0.212745 -1.05678e-18 5.69028e-19 -0.000290859 -2.77987e-17 -5.16267e-17 -8.23982e-32 0.001415 
7350 1 0.0388042 0.0484249 0.00745112 0 0 0 -4.44042e-21 -7.50916e-20 -0.212745 3.9709e-27 6.71516e-26 -0.000290859 2.59568e-19 -1.53491e-20 3.67276e-36 0.001415 
6406 1 -0.013834 -0.0547628 0.0099379 0 0 0 7.53949e-18 -2.19806e-18 -0.212745 1.6713e-19 -4.87248e-20 -0.000290859 -7.78813e-17 -2.67139e-16 -1.23856e-30 0.001415 
4747 1 -0.048396 -0.0516837 0.0107267 0 0 0 -2.24035e-17 3.27565e-18 -0.212745 -4.98718e-19 7.29184e-20 -0.000290859 -1.46621e-16 -1.0028e-15 -4.35055e-31 0.001415 
8904 1 0.00698378 -0.051284 0.010246 0 0 0 0 0 -0.212745 0 0 -0.000290859 0 0 0 0.001415 
9219 1 -0.0350531 -0.0474779 0.00900978 0 0 0 0 0 -0.212745 0 0 -0.000290859 0 0 0 0.001415 
8295 1 0.0424827 -0.0477148 0.0092775 0 0 0 0 0 -0.212745 0 0 -0.000290859 0 0 0 0.001415 
165 1 0.0235443 -0.0395164 0.010032 0 0 0 6.84208e-20 9.1325e-19 -0.212745 5.71883e-21 7.63323e-20 -0.000290859 1.77538e-16 -1.33012e-17 5.7956e-30 0.001415 
6551 1 -0.00658842 -0.0296093 0.00952069 0 0 0 1.49182e-18 -2.41789e-19 -0.212745 5.07025e-20 -8.21769e-21 -0.000290859 -1.2651e-17 -7.80555e-17 4.79055e-33 0.001415 
9787 1 -0.0202299 -0.023698 0.0103358 0 0 0 -3.17003e-18 -3.94184e-18 -0.212745 -7.11567e-20 -8.84811e-20 -0.000290859 -1.25733e-16 1.01114e-16 -6.48771e-31 0.001415 
1406 1 0.0148736 -0.0197 0.00991106 0 0 0 6.80115e-19 1.98969e-19 -0.212745 -6.08201e-25 -1.7793e-25 -0.000290859 -4.80085e-19 1.64102e-18 -6.54903e-34 0.001415 
8588 1 -0.0403296 -0.0176897 0.0101857 0 0 0 2.09429e-18 -2.76579e-17 -0.212745 5.9641e-20 -7.8764e-19 -0.000290859 1.63811e-15 1.2404e-16 9.8259e-30 0.001415 
8820 1 0.00980992 -0.0172644 0.0105135 0 0 0 0 0 -0.212745 0 0 -0.000290859 0 0 0 0.001415 
3529 1 0.0670132 -0.0166749 0.0108135 0 0 0 0 0 -0.212745 0 0 -0.000290859 0 0 0 0.001415 
4473 1 -0.0215554 -0.0144106 0.0102901 0 0 0 0 0 -0.212745 0 0 -0.000290859 0 0 0 0.001415 
5437 1 0.0244153 -0.0132218 0.0101671 0 0 0 4.19887e-18 -7.97849e-18 -0.212745 5.38839e-20 -1.02387e-19 -0.000290859 5.33641e-16 2.80842e-16 1.16798e-30 0.001415 
2099 1 -0.0146787 -0.0109948 0.00989983 0 0 0 9.91523e-19 1.79901e-19 -0.212745 7.01086e-20 1.27204e-20 -0.000290859 1.37554e-17 -7.58128e-17 9.51698e-32 0.001415 
3528 1 0.0516347 -0.000942708 0.0096021 0 0 0 -8.42789e-18 -3.833e-18 -0.212745 -1.8652e-19 -8.48294e-20 -0.000290859 -1.5599e-16 3.42987e-16 1.84291e-30 0.001415 
2457 1 0.0227749 0.00368251 0.00992509 0 0 0 0 0 -0.212745 0 0 -0.000290859 0 0 0 0.001415 
6445 1 -0.0495051 0.00927345 0.0106865 0 0 0 -3.29899e-20 4.01895e-20 -0.212745 -2.73379e-21 3.3304e-21 -0.000290859 -5.87366e-17 -4.82146e-17 5.71312e-31 0.001415 
4431 1 -0.0620527 0.012605 0.0106811 0 0 0 -1.56916e-17 3.35208e-18 -0.212745 -4.92277e-19 1.05162e-19 -0.000290859 -3.85355e-16 -1.80391e-15 -1.23892e-29 0.001415 
4346 1 0.0459771 0.0129104 0.00919757 0 0 0 -4.53575e-18 -1.59423e-18 -0.212745 -1.16698e-19 -4.1017e-20 -0.000290859 -7.02465e-17 1.99859e-16 -3.70534e-31 0.001415 
5820 1 0.0722357 0.0116248 0.0104756 0 0 0 4.23773e-18 -4.07317e-18 -0.212745 9.39034e-20 -9.02568e-20 -0.000290859 -1.73666e-16 -1.80682e-16 -1.43421e-30 0.001415 
9995 1 -0.0283179 0.0187371 0.0091569 0 0 0 1.75262e-18 1.67427e-18 -0.212745 -1.5673e-24 -1.49724e-24 -0.000290859 -7.58362e-18 7.93849e-18 1.07771e-32 0.001415 
1280 1 -0.00826091 0.0224106 0.00980227 0 0 0 7.20061e-19 2.66732e-19 -0.212745 -6.43924e-25 -2.38528e-25 -0.000290859 -8.98031e-19 2.4243e-18 -9.3917e-34 0.001415 
3551 1 0.0378271 0.027027 0.0092333 0 0 0 1.07716e-18 -6.30148e-18 -0.212745 -9.63262e-25 5.63517e-24 -0.000290859 3.71284e-17 6.34664e-18 -1.16606e-32 0.001415 
3968 1 -0.0261983 0.0364757 0.0106184 0 0 0 7.53864e-18 -2.35844e-17 -0.212745 1.66789e-19 -5.21795e-19 -0.000290859 -2.06055e-15 -6.58646e-16 1.05495e-30 0.001415 
9745 1 -0.0323504 0.0411674 0.00992471 0 0 0 0 0 -0.212745 0 0 -0.000290859 0 0 0 0.001415 
485 1 0.0142511 0.04219 0.00966395 0 0 0 -2.85388e-18 2.41894e-18 -0.212745 2.55211e-24 -2.16317e-24 -0.000290859 -1.26419e-17 -1.49149e-17 1.11467e-32 0.001415 
4098 1 0.0474587 0.0419422 0.00986933 0 0 0 2.81586e-19 -9.57453e-20 -0.212745 3.882e-20 -1.31997e-20 -0.000290859 -6.35577e-18 -1.86922e-17 -1.21233e-31 0.001415 
4639 1 0.000319678 0.0462251 0.0102506 0 0 0 -5.27215e-18 2.83882e-18 -0.212745 8.87719e-19 -4.77998e-19 -0.000290859 1.35542e-16 2.51724e-16 -9.5833e-31 0.001415 
7349 1 0.0388392 0.0490157 0.0102185 0 0 0 -3.49759e-19 -5.91475e-18 -0.212745 -1.24708e-20 -2.10893e-19 -0.000290859 -5.44126e-16 3.2176e-17 -7.74241e-31 0.001415 
3318 1 0.0108764 -0.0748018 0.0123077 0 0 0 0 0 -0.212745 0 0 -0.000290859 0 0 0 0.001415 
5121 1 -0.0078553 -0.064238 0.0110605 0 0 0 -4.28992e-18 -1.51004e-18 -0.212745 -1.58494e-19 -5.57895e-20 -0.000290859 -2.78068e-16 7.89973e-16 1.99933e-29 0.001415 
6407 1 -0.0157638 -0.0542001 0.0119299 0 0 0 -7.53949e-18 2.19806e-18 -0.212745 -1.6713e-19 4.87248e-20 -0.000290859 -7.78813e-17 -2.67139e-16 -1.23856e-30 0.001415 
4748 1 -0.0463698 -0.05198 0.0126801 0 0 0 1.19562e-17 -1.74814e-18 -0.212745 1.37619e-19 -2.01215e-20 -0.000290859 -5.15044e-16 -3.5226e-15 5.98026e-30 0.001415 
8903 1 0.00719176 -0.0530399 0.0124557 0 0 0 -1.03378e-18 8.72768e-18 -0.212745 -4.08111e-20 3.44546e-19 -0.000290859 -1.74466e-15 -2.06653e-16 1.72238e-29 0.001415 
8421 1 -0.0125515 -0.050364 0.0121332 0 0 0 0 0 -0.212745 0 0 -0.000290859 0 0 0 0.001415 
5040 1 0.0412118 -0.051077 0.0117103 0 0 0 0 0 -0.212745 0 0 -0.000290859 0 0 0 0.001415 
9218 1 -0.0344149 -0.0491301 0.011217 0 0 0 -3.05577e-18 7.90976e-18 -0.212745 -1.19256e-19 3.0869e-19 -0.000290859 -1.20698e-15 -4.66291e-16 -6.99209e-30 0.001415 
8294 1 0.0417911 -0.0460756 0.0114783 0 0 0 0 0 -0.212745 0 0 -0.000290859 0 0 0 0.001415 
8781 1 0.0111727 -0.0390904 0.0111234 0 0 0 -1.33997e-17 -6.11286e-18 -0.212745 -2.98447e-19 -1.3615e-19 -0.000290859 -1.01823e-15 2.23202e-15 1.87845e-30 0.001415 
7141 1 -0.0440609 -0.0300013 0.0126708 0 0 0 0 0 -0.212745 0 0 -0.000290859 0 0 0 0.001415 
6550 1 -0.00716818 -0.0295154 0.0122891 0 0 0 -2.286e-18 3.70507e-19 -0.212745 -5.07018e-20 8.21757e-21 -0.000290859 -1.21825e-17 -7.51649e-17 4.99465e-33 0.001415 
9788 1 -0.0191042 -0.0222982 0.0125227 0 0 0 -2.53921e-19 -3.15743e-19 -0.212745 -8.77469e-20 -1.0911e-19 -0.000290859 1.51605e-15 -1.21921e-15 1.52702e-29 0.001415 
1405 1 0.0162037 -0.0193109 0.0123785 0 0 0 -1.43816e-17 -4.20738e-18 -0.212745 -4.76043e-19 -1.39267e-19 -0.000290859 4.5419e-16 -1.55251e-15 7.30776e-30 0.001415 
8819 1 0.00974619 -0.0192248 0.0125535 0 0 0 6.22839e-19 1.91566e-17 -0.212745 1.94839e-20 5.99265e-19 -0.000290859 -1.04239e-15 3.38912e-17 -1.4307e-29 0.001415 
4472 1 -0.0211077 -0.0159411 0.0126281 0 0 0 -7.47996e-18 2.55686e-17 -0.212745 -2.1466e-19 7.33771e-19 -0.000290859 -3.64787e-15 -1.06716e-15 -2.3865e-29 0.001415 
4389 1 -0.00210167 -0.0164576 0.0113201 0 0 0 1.88581e-18 -9.19313e-19 -0.212745 8.65944e-20 -4.22138e-20 -0.000290859 -2.14716e-16 -4.40454e-16 4.7569e-31 0.001415 
2098 1 -0.0163785 -0.0113032 0.0121414 0 0 0 -3.13153e-18 -5.68183e-19 -0.212745 -7.01067e-20 -1.27201e-20 -0.000290859 1.07399e-17 -5.91929e-17 2.003e-32 0.001415 
4518 1 0.00403554 -0.00678852 0.010872 0 0 0 -9.83128e-18 1.17366e-17 -0.212745 -2.99417e-19 3.57444e-19 -0.000290859 -1.39858e-15 -1.17154e-15 -3.63147e-29 0.001415 
9888 1 -0.0548111 -0.00420847 0.0109147 0 0 0 2.24954e-18 -2.80964e-18 -0.212745 9.12091e-20 -1.13919e-19 -0.000290859 -4.44548e-16 -3.55927e-16 -6.82029e-30 0.001415 
3527 1 0.053278 -0.000195356 0.0117816 0 0 0 8.42789e-18 3.833e-18 -0.212745 1.8652e-19 8.48294e-20 -0.000290859 -1.5599e-16 3.42987e-16 1.84291e-30 0.001415 
4852 1 -0.0576017 0.00160357 0.0125425 0 0 0 4.71791e-18 7.74109e-18 -0.212745 1.81257e-19 2.97405e-19 -0.000290859 -4.79899e-16 2.92481e-16 3.28045e-29 0.001415 
2456 1 0.0231999 0.00341526 0.0127102 0 0 0 -1.5542e-16 9.77397e-17 -0.212745 -2.58189e-18 1.62368e-18 -0.000290859 -3.75708e-16 -5.9743e-16 -2.69623e-30 0.001415 
1470 1 -0.0541433 0.00552442 0.0111622 0 0 0 1.14774e-17 1.10603e-17 -0.212745 3.62622e-19 3.49442e-19 -0.000290859 -1.47573e-15 1.53139e-15 5.62962e-29 0.001415 
7478 1 0.0063252 0.00556124 0.0110084 0 0 0 0 0 -0.212745 0 0 -0.000290859 0 0 0 0.001415 
5545 1 -0.0302182 0.00727945 0.0113026 0 0 0 0 0 -0.212745 0 0 -0.000290859 0 0 0 0.001415 
4367 1 0.0426483 0.0117219 0.0112082 0 0 0 -4.89411e-18 4.41484e-18 -0.212745 -1.98535e-19 1.79093e-19 -0.000290859 1.99853e-18 2.21548e-18 5.25625e-30 0.001415 
4345 1 0.0473197 0.0133822 0.0116437 0 0 0 5.26406e-18 1.85021e-18 -0.212745 1.16697e-19 4.10167e-20 -0.000290859 -6.9978e-17 1.99095e-16 -3.70501e-31 0.001415 
9994 1 -0.0272948 0.0197145 0.0116078 0 0 0 -1.06139e-17 -1.01394e-17 -0.212745 -3.4425e-19 -3.28861e-19 -0.000290859 1.05641e-15 -1.10584e-15 1.45459e-29 0.001415 
1279 1 -0.00741294 0.0227247 0.0124839 0 0 0 -1.25902e-17 -4.6638e-18 -0.212745 -4.01206e-19 -1.48619e-19 -0.000290859 -8.94843e-17 2.41569e-16 -8.62685e-30 0.001415 
2812 1 0.0619348 0.0249338 0.0111608 0 0 0 1.01941e-18 5.1724e-18 -0.212745 4.97551e-20 2.52453e-19 -0.000290859 3.75094e-16 -7.3926e-17 -1.85279e-29 0.001415 
4219 1 0.00713294 0.0263879 0.0109703 0 0 0 7.17039e-19 -5.29938e-18 -0.212745 3.53568e-20 -2.6131e-19 -0.000290859 7.62287e-16 1.03142e-16 -2.89726e-30 0.001415 
3552 1 0.038076 0.0255707 0.0116471 0 0 0 -6.52159e-19 3.81519e-18 -0.212745 -2.98431e-20 1.74585e-19 -0.000290859 -8.23802e-16 -1.40819e-16 1.49012e-29 0.001415 
9955 1 0.0480973 0.0295036 0.0119424 0 0 0 0 0 -0.212745 0 0 -0.000290859 0 0 0 0.001415 
6216 1 -0.023401 0.0310553 0.0110397 0 0 0 -1.27361e-18 -5.92175e-18 -0.212745 -2.87035e-20 -1.33458e-19 -0.000290859 -1.35021e-16 2.90395e-17 -3.71678e-31 0.001415 
8775 1 0.0134757 0.0326995 0.0115257 0 0 0 -3.85838e-19 6.49351e-19 -0.212745 -2.76975e-20 4.66139e-20 -0.000290859 3.36535e-16 1.99966e-16 -2.22023e-30 0.001415 
7874 1 -0.0157052 0.0360712 0.0112537 0 0 0 -2.01485e-18 -2.38325e-18 -0.212745 -4.46314e-20 -5.27919e-20 -0.000290859 1.151e-16 -9.73083e-17 -8.76978e-32 0.001415 
4099 1 0.0465216 0.0422608 0.0125206 0 0 0 -1.74117e-18 5.92037e-19 -0.212745 -3.88187e-20 1.31992e-20 -0.000290859 -4.83503e-18 -1.42198e-17 -1.19771e-31 0.001415 
9746 1 -0.0326219 0.0429159 0.0121334 0 0 0 1.69038e-18 -1.08867e-17 -0.212745 6.28921e-20 -4.05048e-19 -0.000290859 1.91603e-15 2.97503e-16 -1.66147e-29 0.001415 
486 1 0.0131757 0.0431015 0.0121178 0 0 0 1.64173e-17 -1.39153e-17 -0.212745 4.89076e-19 -4.1454e-19 -0.000290859 2.35329e-15 2.77642e-15 -7.75105e-30 0.001415 
8316 1 0.0241447 0.055508 0.0126854 0 0 0 0 0 -0.212745 0 0 -0.000290859 0 0 0 0.001415 
6048 1 -0.0014895 0.0671831 0.011533 0 0 0 -9.97009e-18 -5.99125e-19 -0.212745 -3.79424e-19 -2.28004e-20 -0.000290859 4.56669e-17 -7.59947e-16 2.01832e-30 0.001415 
3317 1 0.00879117 -0.0741345 0.0141008 0 0 0 4.8703e-16 -1.55856e-16 -0.212745 7.77862e-18 -2.48927e-18 -0.000290859 -1.74297e-16 -5.44653e-16 -2.27808e-29 0.001415 
4537 1 0.0348065 -0.0668743 0.0140787 0 0 0 1.59281e-16 -3.10189e-16 -0.212745 2.50381e-18 -4.87601e-18 -0.000290859 5.06371e-15 2.6002e-15 -3.72506e-29 0.001415 
5120 1 -0.00732864 -0.0640527 0.0138349 0 0 0 -1.94378e-16 -6.84205e-17 -0.212745 -2.89298e-18 -1.01832e-18 -0.000290859 1.05181e-15 -2.98811e-15 2.18659e-29 0.001415 
4749 1 -0.0443437 -0.0522762 0.0146335 0 0 0 -3.5807e-16 5.2354e-17 -0.212745 -4.84972e-18 7.09085e-19 -0.000290859 5.48469e-16 3.7512e-15 -7.49945e-30 0.001415 
6408 1 -0.0176936 -0.0536375 0.013922 0 0 0 5.22611e-16 -1.52361e-16 -0.212745 8.36934e-18 -2.43999e-18 -0.000290859 4.76761e-16 1.63532e-15 1.46423e-28 0.001415 
9217 1 -0.0337766 -0.0507822 0.0134243 0 0 0 -1.65356e-16 4.28019e-16 -0.212745 -2.47597e-18 6.40897e-18 -0.000290859 -1.38254e-15 -5.34115e-16 1.9639e-28 0.001415 
5039 1 0.0393096 -0.0515993 0.0137395 0 0 0 4.7734e-16 1.31068e-16 -0.212745 7.62122e-18 2.09263e-18 -0.000290859 -2.44991e-16 8.92239e-16 3.00172e-29 0.001415 
8420 1 -0.0130316 -0.0490822 0.0146101 0 0 0 1.58211e-16 -4.22456e-16 -0.212745 2.46586e-18 -6.58434e-18 -0.000290859 2.96724e-15 1.11124e-15 4.60365e-29 0.001415 
8293 1 0.0410995 -0.0444363 0.0136791 0 0 0 2.0785e-16 -4.92643e-16 -0.212745 3.30869e-18 -7.84222e-18 -0.000290859 -4.77348e-15 -2.01397e-15 7.76737e-29 0.001415 
8782 1 0.00995582 -0.0396456 0.0136174 0 0 0 3.56012e-16 1.62411e-16 -0.212745 5.21134e-18 2.37738e-18 -0.000290859 1.23772e-15 -2.71314e-15 -5.07875e-29 0.001415 
164 1 0.0235073 -0.0400101 0.0128183 0 0 0 1.30542e-17 1.74241e-16 -0.212745 3.66822e-19 4.89618e-18 -0.000290859 -2.89096e-15 2.16591e-16 7.46064e-30 0.001415 
1765 1 -0.00582286 -0.0341936 0.0143722 0 0 0 4.06925e-16 -1.27342e-16 -0.212745 6.3586e-18 -1.98985e-18 -0.000290859 -1.47616e-15 -4.71712e-15 -3.9983e-29 0.001415 
2898 1 -0.0015393 -0.0260351 0.0146444 0 0 0 2.9634e-16 -5.85003e-17 -0.212745 4.61672e-18 -9.11384e-19 -0.000290859 6.23172e-16 3.15675e-15 -1.42417e-29 0.001415 
1113 1 0.057839 -0.0250229 0.013501 0 0 0 4.4478e-16 2.28192e-16 -0.212745 6.95734e-18 3.56943e-18 -0.000290859 5.93566e-16 -1.15695e-15 -1.99343e-28 0.001415 
2604 1 -0.0264828 -0.0239558 0.0143689 0 0 0 4.18372e-16 -1.82157e-17 -0.212745 6.5778e-18 -2.86394e-19 -0.000290859 -2.42891e-16 -5.57864e-15 1.32174e-29 0.001415 
8818 1 0.00968245 -0.0211851 0.0145936 0 0 0 1.46875e-17 4.51741e-16 -0.212745 2.18833e-19 6.73061e-18 -0.000290859 -1.42976e-15 4.6486e-17 -1.46685e-29 0.001415 
3530 1 0.0663652 -0.0174708 0.0134508 0 0 0 2.81327e-16 3.45526e-16 -0.212745 4.63424e-18 5.69177e-18 -0.000290859 -2.94282e-15 2.39604e-15 -1.43277e-28 0.001415 
8587 1 -0.0404076 -0.0166605 0.0128207 0 0 0 2.39448e-17 -3.16224e-16 -0.212745 5.90874e-19 -7.80329e-18 -0.000290859 3.67474e-15 2.78256e-16 -1.55327e-30 0.001415 
4388 1 -0.00265555 -0.0161876 0.0140822 0 0 0 1.98725e-16 -9.6876e-17 -0.212745 2.97063e-18 -1.44815e-18 -0.000290859 1.42237e-15 2.91775e-15 -7.62327e-30 0.001415 
2097 1 -0.0180782 -0.0116116 0.014383 0 0 0 4.8448e-16 8.79036e-17 -0.212745 7.47469e-18 1.3562e-18 -0.000290859 7.25032e-16 -3.996e-15 -8.41531e-29 0.001415 
5436 1 0.0238697 -0.0121851 0.0127433 0 0 0 -1.51722e-18 2.88294e-18 -0.212745 2.87591e-20 -5.46466e-20 -0.000290859 9.01623e-16 4.74501e-16 -1.68291e-29 0.001415 
4519 1 0.0050482 -0.00799743 0.0132219 0 0 0 -2.17869e-16 2.60091e-16 -0.212745 -4.44538e-18 5.30689e-18 -0.000290859 -1.03278e-15 -8.65117e-16 2.09582e-29 0.001415 
9887 1 -0.0551901 -0.00373509 0.0136789 0 0 0 1.39401e-16 -1.7411e-16 -0.212745 2.0684e-18 -2.5834e-18 -0.000290859 2.57032e-15 2.05793e-15 -6.297e-30 0.001415 
4853 1 -0.0586257 -7.65915e-05 0.0145766 0 0 0 2.50575e-16 4.11141e-16 -0.212745 3.80783e-18 6.24785e-18 -0.000290859 -3.21783e-15 1.96115e-15 5.4178e-29 0.001415 
9744 1 -0.0476714 0.00124731 0.0134632 0 0 0 2.34745e-18 2.67394e-18 -0.212745 1.01193e-19 1.15267e-19 -0.000290859 -1.64141e-16 1.44099e-16 3.03058e-29 0.001415 
3403 1 0.0399954 0.00144601 0.0135981 0 0 0 -4.13597e-16 1.95723e-17 -0.212745 -6.09453e-18 2.88406e-19 -0.000290859 -4.55848e-17 -9.63287e-16 -2.01309e-30 0.001415 
3526 1 0.0549212 0.000551996 0.013961 0 0 0 -4.89285e-16 -2.22527e-16 -0.212745 -7.85666e-18 -3.57321e-18 -0.000290859 -2.04016e-15 4.48584e-15 -3.04364e-28 0.001415 
3843 1 -0.0432547 0.00201405 0.0141836 0 0 0 3.91304e-16 2.6662e-16 -0.212745 5.99777e-18 4.08666e-18 -0.000290859 2.03442e-16 -2.98581e-16 1.87889e-28 0.001415 
6238 1 0.0476834 0.00358837 0.0137191 0 0 0 4.98915e-16 -3.2101e-16 -0.212745 8.287e-18 -5.332e-18 -0.000290859 3.67767e-16 5.71585e-16 -1.25729e-28 0.001415 
1469 1 -0.0554428 0.00427207 0.013342 0 0 0 3.14926e-16 3.0348e-16 -0.212745 5.22933e-18 5.03927e-18 -0.000290859 7.86135e-16 -8.15785e-16 -1.28683e-28 0.001415 
7479 1 0.00708078 0.00479504 0.0136259 0 0 0 -2.61974e-16 2.65658e-16 -0.212745 -4.01401e-18 4.07046e-18 -0.000290859 -2.8539e-15 -2.81433e-15 -8.09448e-29 0.001415 
6444 1 -0.0485008 0.00805 0.0130325 0 0 0 -5.51649e-18 6.72037e-18 -0.212745 -2.30393e-19 2.80672e-19 -0.000290859 -1.50607e-15 -1.23627e-15 -4.10057e-29 0.001415 
5546 1 -0.0286421 0.00814112 0.0134894 0 0 0 -4.96416e-16 -2.71398e-16 -0.212745 -7.9695e-18 -4.35704e-18 -0.000290859 -2.43402e-15 4.45209e-15 -1.05542e-28 0.001415 
7897 1 0.0202104 0.0106666 0.0128853 0 0 0 2.9411e-18 1.40191e-17 -0.212745 9.90602e-20 4.72181e-19 -0.000290859 -5.26655e-16 1.10488e-16 1.8075e-29 0.001415 
4366 1 0.0434972 0.010956 0.013797 0 0 0 -2.958e-16 2.66833e-16 -0.212745 -4.4865e-18 4.04715e-18 -0.000290859 -2.09561e-15 -2.32311e-15 2.30492e-29 0.001415 
4430 1 -0.0607358 0.0123237 0.0131702 0 0 0 -3.54933e-16 7.58216e-17 -0.212745 -4.94687e-18 1.05676e-18 -0.000290859 -1.7527e-16 -8.20465e-16 2.43211e-29 0.001415 
5821 1 0.071151 0.0126674 0.0128725 0 0 0 -4.23773e-18 4.07317e-18 -0.212745 -9.39034e-20 9.02568e-20 -0.000290859 -1.73666e-16 -1.80682e-16 -1.43421e-30 0.001415 
4344 1 0.0486622 0.0138541 0.0140899 0 0 0 -4.42669e-16 -1.55589e-16 -0.212745 -6.89271e-18 -2.42265e-18 -0.000290859 6.25388e-16 -1.7793e-15 1.03028e-28 0.001415 
5629 1 -0.00809486 0.0186934 0.0139632 0 0 0 4.33104e-16 7.57656e-18 -0.212745 6.48111e-18 1.13378e-19 -0.000290859 1.25612e-16 -7.18044e-15 9.59092e-30 0.001415 
9993 1 -0.0262716 0.020692 0.0140586 0 0 0 -2.76204e-16 -2.63857e-16 -0.212745 -3.87042e-18 -3.6974e-18 -0.000290859 -1.3757e-15 1.44008e-15 6.17649e-29 0.001415 
3553 1 0.038325 0.0241144 0.0140608 0 0 0 -6.49707e-17 3.80085e-16 -0.212745 -9.05688e-19 5.29836e-18 -0.000290859 6.59227e-16 1.12687e-16 2.98849e-29 0.001415 
2811 1 0.0616855 0.0236687 0.01368 0 0 0 8.50252e-17 4.31411e-16 -0.212745 1.28734e-18 6.53184e-18 -0.000290859 -4.80013e-15 9.46041e-16 -3.86108e-29 0.001415 
4218 1 0.00694369 0.0277865 0.0134232 0 0 0 5.50871e-17 -4.07129e-16 -0.212745 7.98892e-19 -5.90433e-18 -0.000290859 -1.18355e-15 -1.60141e-16 1.54586e-29 0.001415 
9956 1 0.047731 0.0274693 0.0138754 0 0 0 8.57406e-17 4.76185e-16 -0.212745 1.36765e-18 7.59564e-18 -0.000290859 -1.09923e-15 1.97924e-16 1.38778e-29 0.001415 
6007 1 0.0347873 0.0296881 0.0136453 0 0 0 1.30805e-16 1.46564e-16 -0.212745 1.91616e-18 2.14701e-18 -0.000290859 -2.42183e-15 2.16143e-15 1.84714e-29 0.001415 
8774 1 0.0137081 0.0323084 0.0143189 0 0 0 -8.69248e-17 1.46291e-16 -0.212745 -1.31156e-18 2.2073e-18 -0.000290859 -2.3918e-15 -1.42118e-15 3.95751e-30 0.001415 
6215 1 -0.0229502 0.0331509 0.0128875 0 0 0 -1.60522e-19 -7.46359e-19 -0.212745 -2.98749e-20 -1.38905e-19 -0.000290859 1.35977e-15 -2.9245e-16 -8.16638e-30 0.001415 
3967 1 -0.0257836 0.0351781 0.013099 0 0 0 -1.32753e-16 4.15313e-16 -0.212745 -2.14976e-18 6.72547e-18 -0.000290859 -2.07215e-15 -6.62353e-16 1.37929e-29 0.001415 
7873 1 -0.0162209 0.0354611 0.0139686 0 0 0 1.90429e-16 2.25247e-16 -0.212745 2.89275e-18 3.42167e-18 -0.000290859 -4.67158e-15 3.94945e-15 5.63767e-30 0.001415 
6847 1 -0.0500743 0.0395872 0.0141253 0 0 0 -4.72264e-16 2.03698e-16 -0.212745 -7.83141e-18 3.37786e-18 -0.000290859 2.597e-15 6.02103e-15 -1.34724e-28 0.001415 
487 1 0.0121003 0.044013 0.0145717 0 0 0 2.83974e-16 -2.40696e-16 -0.212745 3.95098e-18 -3.34885e-18 -0.000290859 3.45912e-16 4.08108e-16 1.79193e-29 0.001415 
9747 1 -0.0328934 0.0446643 0.014342 0 0 0 7.50486e-17 -4.8334e-16 -0.212745 1.13458e-18 -7.30711e-18 -0.000290859 -1.00118e-15 -1.55455e-16 -6.7002e-30 0.001415 
4638 1 0.00148191 0.0455993 0.0127538 0 0 0 4.17774e-18 -2.24953e-18 -0.212745 1.41315e-20 -7.60922e-21 -0.000290859 -1.37152e-16 -2.54713e-16 -5.54458e-30 0.001415 
7348 1 0.0388741 0.0496065 0.012986 0 0 0 -1.30624e-17 -2.20897e-16 -0.212745 -1.93756e-19 -3.27659e-18 -0.000290859 3.51709e-15 -2.07978e-16 -3.68228e-30 0.001415 
8315 1 0.0261215 0.0546907 0.0145383 0 0 0 -4.73471e-16 1.95746e-16 -0.212745 -7.5413e-18 3.11778e-18 -0.000290859 -6.21119e-16 -1.50236e-15 2.09166e-28 0.001415 
4831 1 0.0293284 0.0560787 0.0131548 0 0 0 3.82196e-16 -2.1246e-16 -0.212745 6.97155e-18 -3.87543e-18 -0.000290859 -1.35969e-15 -2.44596e-15 -1.37674e-28 0.001415 
6909 1 0.00964204 0.0590336 0.0131889 0 0 0 4.64484e-17 -2.79864e-17 -0.212745 1.21199e-18 -7.30259e-19 -0.000290859 2.73779e-15 4.54384e-15 -5.92169e-29 0.001415 
6047 1 -2.16486e-05 0.0672713 0.013951 0 0 0 -4.76844e-16 -2.86546e-17 -0.212745 -7.16005e-18 -4.30263e-19 -0.000290859 1.36714e-16 -2.27507e-15 -4.84525e-30 0.001415 
7455 1 0.00864732 0.0657086 0.0140973 0 0 0 -1.99173e-17 4.72319e-16 -0.212745 -3.05464e-19 7.24376e-18 -0.000290859 -1.46515e-15 -6.17842e-17 -1.17638e-29 0.001415 
8757 1 0.00829498 0.0765507 0.0135438 0 0 0 0 0 -0.212745 0 0 -0.000290859 0 0 0 0.001415 
3316 1 0.00670592 -0.0734672 0.0158939 0 0 0 -4.8703e-16 1.55856e-16 -0.212745 -7.77862e-18 2.48927e-18 -0.000290859 -1.74297e-16 -5.44653e-16 -2.27808e-29 0.001415 
2499 1 0.0564696 -0.0568217 0.0160409 0 0 0 4.12314e-18 -9.43342e-18 -0.212745 9.27094e-20 -2.12112e-19 -0.000290859 -1.7317e-16 -7.56888e-17 -4.2598e-31 0.001415 
8902 1 0.00739974 -0.0547957 0.0146654 0 0 0 -5.71151e-17 4.82192e-16 -0.212745 -8.60894e-19 7.26806e-18 -0.000290859 -1.80965e-16 -2.14351e-17 2.99327e-29 0.001415 
4054 1 -0.0359786 -0.0521436 0.0163274 0 0 0 0 0 -0.212745 0 0 -0.000290859 0 0 0 0.001415 
9216 1 -0.0331383 -0.0524344 0.0156315 0 0 0 1.628e-16 -4.21404e-16 -0.212745 2.40956e-18 -6.23707e-18 -0.000290859 1.39412e-15 5.38589e-16 1.30617e-28 0.001415 
6409 1 -0.0196234 -0.0530749 0.015914 0 0 0 -5.22611e-16 1.52361e-16 -0.212745 -8.36934e-18 2.43999e-18 -0.000290859 4.76761e-16 1.63532e-15 1.46423e-28 0.001415 
5038 1 0.0374074 -0.0521216 0.0157687 0 0 0 -4.42358e-16 -1.21462e-16 -0.212745 -6.64985e-18 -1.82591e-18 -0.000290859 2.26944e-17 -8.26515e-17 6.38935e-29 0.001415 
8292 1 0.0404079 -0.0427971 0.0158799 0 0 0 -2.02433e-16 4.79805e-16 -0.212745 -3.11622e-18 7.38601e-18 -0.000290859 -5.20381e-15 -2.19553e-15 1.07587e-28 0.001415 
163 1 0.0234703 -0.0405039 0.0156047 0 0 0 -1.30213e-17 -1.73803e-16 -0.212745 -3.72541e-19 -4.97251e-18 -0.000290859 -2.24875e-15 1.68477e-16 9.00475e-30 0.001415 
8783 1 0.00873888 -0.0402008 0.0161113 0 0 0 -3.49731e-16 -1.59545e-16 -0.212745 -4.96301e-18 -2.2641e-18 -0.000290859 1.08851e-15 -2.38606e-15 -3.6261e-29 0.001415 
1766 1 -0.00794199 -0.0335305 0.0161268 0 0 0 -3.77448e-16 1.18118e-16 -0.212745 -5.54035e-18 1.73379e-18 -0.000290859 -1.32448e-15 -4.23241e-15 -7.71796e-30 0.001415 
7142 1 -0.0430179 -0.0310366 0.0150893 0 0 0 -3.15629e-16 3.13293e-16 -0.212745 -4.76532e-18 4.73005e-18 -0.000290859 1.66305e-15 1.67545e-15 -1.69557e-28 0.001415 
6549 1 -0.00774795 -0.0294214 0.0150575 0 0 0 2.28407e-16 -3.70193e-17 -0.212745 3.53753e-18 -5.7335e-19 -0.000290859 5.43401e-16 3.35275e-15 2.92051e-30 0.001415 
1112 1 0.0563793 -0.0257718 0.0158069 0 0 0 -4.4478e-16 -2.28192e-16 -0.212745 -6.95734e-18 -3.56943e-18 -0.000290859 5.93566e-16 -1.15695e-15 -1.99343e-28 0.001415 