ITEM: TIMESTEP
70000
ITEM: NUMBER OF ATOMS
10248
ITEM: BOX BOUNDS ff ff ff
-0.2 0.2
-0.2 0.2
-0.01 0.5
ITEM: ATOMS id type x y z ix iy iz vx vy vz fx fy fz omegax omegay omegaz radius 
5124 1 -0.00943529 -0.0647942 0.00271609 0 0 0 -1.04562e-17 -3.68057e-18 -0.213725 9.37046e-24 3.29837e-24 -0.000290858 2.41026e-16 -6.84738e-16 1.33822e-32 0.001415 
168 1 0.0236553 -0.0380352 0.00165158 0 0 0 6.49502e-18 8.66925e-17 -0.213725 8.7034e-20 1.16169e-18 -0.000290858 7.74528e-17 -5.80278e-18 -6.25389e-31 0.001415 
9891 1 -0.0536741 -0.00562861 0.00260056 0 0 0 6.91719e-18 -8.63945e-18 -0.213725 -6.1989e-24 7.74232e-24 -0.000290858 6.56025e-16 5.25247e-16 -2.86261e-31 0.001415 
8778 1 0.0127785 0.033873 0.00312487 0 0 0 -4.16815e-18 7.01484e-18 -0.213725 3.73533e-24 -6.28641e-24 -0.000290858 -4.39576e-16 -2.61192e-16 3.60365e-31 0.001415 
167 1 0.0236183 -0.0385289 0.00443793 0 0 0 -5.81334e-18 -7.75938e-17 -0.213725 -7.02836e-20 -9.38113e-19 -0.000290858 1.23319e-16 -9.23911e-18 2.18704e-30 0.001415 
5439 1 0.0255064 -0.015295 0.00499344 0 0 0 6.69765e-19 -1.27265e-18 -0.213725 -6.00216e-25 1.1405e-24 -0.000290858 -5.23932e-18 -2.75732e-18 2.22109e-33 0.001415 
4096 1 0.0493328 0.0413049 0.00454545 0 0 0 6.54342e-18 -2.22491e-18 -0.213725 1.33977e-19 -4.5555e-20 -0.000290858 -9.75709e-17 -2.86955e-16 3.82247e-31 0.001415 
5123 1 -0.00890863 -0.0646088 0.00549046 0 0 0 9.51984e-18 3.35095e-18 -0.213725 -8.53129e-24 -3.00299e-24 -0.000290858 2.39576e-16 -6.8062e-16 1.61867e-32 0.001415 
8779 1 0.0136066 -0.0379801 0.00611422 0 0 0 1.14884e-19 5.24094e-20 -0.213725 -1.02954e-25 -4.69671e-26 -0.000290858 -4.07836e-19 8.93996e-19 -5.00786e-34 0.001415 
6552 1 -0.00600865 -0.0297033 0.00673098 0 0 0 7.94176e-19 -1.28717e-19 -0.213725 -7.11708e-25 1.15351e-25 -0.000290858 -4.685e-19 -2.89061e-18 -2.04105e-34 0.001415 
9890 1 -0.0540531 -0.00515523 0.00536482 0 0 0 -6.00515e-18 7.50033e-18 -0.213725 5.38156e-24 -6.72149e-24 -0.000290858 6.50017e-16 5.20437e-16 -2.86581e-31 0.001415 
4516 1 0.00201022 -0.00437069 0.00615091 0 0 0 -1.07233e-18 1.28015e-18 -0.213725 9.60982e-25 -1.14722e-24 -0.000290858 4.69476e-18 3.93262e-18 -1.24821e-32 0.001415 
5818 1 0.0744051 0.00953964 0.00566036 0 0 0 2.36868e-19 -2.2767e-19 -0.213725 -2.12272e-25 2.04028e-25 -0.000290858 -2.53196e-19 -2.63426e-19 -1.71792e-34 0.001415 
6447 1 -0.0515136 0.0117203 0.0059733 0 0 0 -1.10177e-18 1.34222e-18 -0.213725 9.87362e-25 -1.20284e-24 -0.000290858 4.42262e-18 3.63035e-18 -1.38199e-32 0.001415 
4347 1 0.0446345 0.0124385 0.00673007 0 0 0 -7.28302e-19 -2.55984e-19 -0.213725 6.52674e-25 2.29402e-25 -0.000290858 -2.68517e-19 7.6396e-19 -3.25102e-35 0.001415 
9996 1 -0.0293411 0.0177597 0.00668473 0 0 0 -1.75261e-18 -1.67426e-18 -0.213725 1.57062e-24 1.50041e-24 -0.000290858 -7.58358e-18 7.93845e-18 1.07771e-32 0.001415 
4221 1 0.00751144 0.0235905 0.00604316 0 0 0 3.08446e-20 -2.27961e-19 -0.213725 -2.76416e-26 2.04289e-25 -0.000290858 4.14652e-19 5.6105e-20 1.08555e-34 0.001415 
3550 1 0.0375782 0.0284832 0.00679822 0 0 0 -1.07715e-18 6.30146e-18 -0.213725 9.65302e-25 -5.64711e-24 -0.000290858 3.71282e-17 6.34661e-18 -1.16605e-32 0.001415 
2814 1 0.0624335 0.0274639 0.00610108 0 0 0 1.42419e-19 7.22622e-19 -0.213725 -1.2763e-25 -6.47584e-25 -0.000290858 1.17365e-18 -2.3131e-19 1.95778e-33 0.001415 
8777 1 0.0130109 0.0334818 0.00591805 0 0 0 3.96836e-18 -6.67861e-18 -0.213725 -3.55628e-24 5.98509e-24 -0.000290858 -4.38803e-16 -2.60732e-16 3.60244e-31 0.001415 
4641 1 -0.00200478 0.0474767 0.00522263 0 0 0 -2.10648e-18 1.13425e-18 -0.213725 1.88774e-24 -1.01646e-24 -0.000290858 5.34887e-18 9.93372e-18 -2.46546e-33 0.001415 
5122 1 -0.00838197 -0.0644234 0.00826484 0 0 0 6.67885e-19 2.35093e-19 -0.213725 -7.2567e-21 -2.55434e-21 -0.000290858 3.82567e-17 -1.08685e-16 -7.68629e-31 0.001415 
8780 1 0.0123897 -0.0385353 0.00860817 0 0 0 1.42889e-17 6.51852e-18 -0.213725 2.97361e-19 1.35654e-19 -0.000290858 -1.12708e-15 2.47062e-15 2.02717e-30 0.001415 
166 1 0.0235813 -0.0390227 0.00722429 0 0 0 -6.25453e-19 -8.34826e-18 -0.213725 -1.67504e-20 -2.23577e-19 -0.000290858 4.71302e-17 -3.531e-18 2.81234e-30 0.001415 
1407 1 0.0135434 -0.0200891 0.00742232 0 0 0 -6.80113e-19 -1.98968e-19 -0.213725 6.09489e-25 1.78307e-25 -0.000290858 -4.80082e-19 1.64101e-18 -6.549e-34 0.001415 
8589 1 -0.0402517 -0.0187189 0.00752928 0 0 0 5.78204e-20 -7.63597e-19 -0.213725 -5.18163e-26 6.84304e-25 -0.000290858 3.63291e-18 2.75088e-19 -1.53635e-32 0.001415 
5438 1 0.0249608 -0.0142584 0.00756961 0 0 0 1.41539e-18 -2.68946e-18 -0.213725 -1.26842e-24 2.41018e-24 -0.000290858 -5.54954e-16 -2.92058e-16 -3.33519e-31 0.001415 
2100 1 -0.012979 -0.0106864 0.00763693 0 0 0 2.21977e-18 4.02754e-19 -0.213725 -1.98927e-24 -3.60932e-25 -0.000290858 3.13109e-18 -1.7257e-17 8.67496e-32 0.001415 
9889 1 -0.0544321 -0.00468185 0.00812909 0 0 0 -9.12041e-19 1.13912e-18 -0.213725 8.17334e-25 -1.02084e-24 -0.000290858 -6.00743e-18 -4.80985e-18 -3.20217e-34 0.001415 
4517 1 0.00302288 -0.0055796 0.0085008 0 0 0 1.07233e-18 -1.28015e-18 -0.213725 -9.60982e-25 1.14722e-24 -0.000290858 4.69476e-18 3.93262e-18 -1.24821e-32 0.001415 
7477 1 0.00556963 0.00632744 0.0083697 0 0 0 0 0 -0.213725 0 0 -0.000290858 0 0 0 0.001415 
6446 1 -0.0505093 0.0104969 0.00831925 0 0 0 -9.18806e-19 1.11932e-18 -0.213725 -4.22906e-20 5.15198e-20 -0.000290858 2.68247e-18 2.20193e-18 2.29159e-31 0.001415 
5819 1 0.0733204 0.0105822 0.0080573 0 0 0 -2.36868e-19 2.2767e-19 -0.213725 2.12272e-25 -2.04028e-25 -0.000290858 -2.53196e-19 -2.63426e-19 -1.71792e-34 0.001415 
4368 1 0.0417993 0.0124877 0.0085981 0 0 0 0 0 -0.213725 0 0 -0.000290858 0 0 0 0.001415 
1281 1 -0.00910888 0.0220965 0.00709931 0 0 0 -7.20059e-19 -2.66731e-19 -0.213725 6.45287e-25 2.39033e-25 -0.000290858 -8.98026e-19 2.42428e-18 -9.39165e-34 0.001415 
4220 1 0.00732219 0.0249892 0.00849607 0 0 0 7.83235e-19 -5.78861e-18 -0.213725 1.72791e-20 -1.27704e-19 -0.000290858 -5.86104e-17 -7.93035e-18 1.32517e-31 0.001415 
2813 1 0.0621842 0.0261988 0.00862027 0 0 0 6.349e-19 3.22143e-18 -0.213725 1.67553e-20 8.50148e-20 -0.000290858 -4.56525e-17 8.99748e-18 -3.24444e-32 0.001415 
8776 1 0.0132433 0.0330907 0.00871124 0 0 0 -2.72215e-19 4.58128e-19 -0.213725 -1.01918e-20 1.71525e-20 -0.000290858 -1.30326e-17 -7.74384e-18 1.40814e-31 0.001415 
3969 1 -0.0266131 0.0377733 0.00811655 0 0 0 -8.09946e-18 2.53389e-17 -0.213725 -1.65985e-19 5.19278e-19 -0.000290858 -2.25101e-15 -7.19526e-16 1.03059e-30 0.001415 
7875 1 -0.0151895 0.0366812 0.00851748 0 0 0 2.16492e-18 2.56076e-18 -0.213725 4.44179e-20 5.25394e-20 -0.000290858 1.33851e-16 -1.1316e-16 -1.6076e-31 0.001415 
484 1 0.0153265 0.0412785 0.00718873 0 0 0 2.85387e-18 -2.41893e-18 -0.213725 -2.55752e-24 2.16775e-24 -0.000290858 -1.26418e-17 -1.49148e-17 1.11467e-32 0.001415 
4097 1 0.0483957 0.0416236 0.00719673 0 0 0 -5.08384e-18 1.72862e-18 -0.213725 -1.33978e-19 4.55554e-20 -0.000290858 -9.90916e-17 -2.91427e-16 3.80785e-31 0.001415 
4640 1 -0.000842548 0.0468509 0.00772593 0 0 0 -2.83772e-18 1.52799e-18 -0.213725 -3.02233e-19 1.62739e-19 -0.000290858 -3.63539e-17 -6.75151e-17 -8.68772e-32 0.001415 
7350 1 0.0388042 0.0484249 0.0074298 0 0 0 -4.44041e-21 -7.50914e-20 -0.213725 3.97931e-27 6.72938e-26 -0.000290858 2.59566e-19 -1.5349e-20 3.67274e-36 0.001415 
6406 1 -0.013834 -0.0547628 0.00991657 0 0 0 8.10153e-18 -2.36191e-18 -0.213725 1.66366e-19 -4.85022e-20 -0.000290858 -9.05705e-17 -3.10664e-16 -1.22373e-30 0.001415 
4747 1 -0.048396 -0.0516837 0.0107053 0 0 0 -2.40812e-17 3.52095e-18 -0.213725 -4.96799e-19 7.26378e-20 -0.000290858 -1.55895e-16 -1.06623e-15 -5.89381e-31 0.001415 
8904 1 0.00698378 -0.051284 0.0102247 0 0 0 0 0 -0.213725 0 0 -0.000290858 0 0 0 0.001415 
9219 1 -0.0350531 -0.0474779 0.00898846 0 0 0 0 0 -0.213725 0 0 -0.000290858 0 0 0 0.001415 
8295 1 0.0424827 -0.0477148 0.00925617 0 0 0 0 0 -0.213725 0 0 -0.000290858 0 0 0 0.001415 
165 1 0.0235443 -0.0395164 0.0100106 0 0 0 8.85681e-20 1.18217e-18 -0.213725 6.23327e-21 8.31989e-20 -0.000290858 1.79821e-16 -1.34722e-17 6.74407e-30 0.001415 
6551 1 -0.00658842 -0.0296093 0.00949937 0 0 0 1.66231e-18 -2.69422e-19 -0.213725 5.04641e-20 -8.17904e-21 -0.000290858 -1.50895e-17 -9.3101e-17 2.92588e-33 0.001415 
9787 1 -0.0202299 -0.023698 0.0103145 0 0 0 -3.40969e-18 -4.23984e-18 -0.213725 -7.10449e-20 -8.83421e-20 -0.000290858 -1.45411e-16 1.1694e-16 -8.31038e-31 0.001415 
1406 1 0.0148736 -0.0197 0.00988974 0 0 0 6.80113e-19 1.98968e-19 -0.213725 -6.09489e-25 -1.78307e-25 -0.000290858 -4.80082e-19 1.64101e-18 -6.549e-34 0.001415 
8588 1 -0.0403296 -0.0176897 0.0101644 0 0 0 2.29793e-18 -3.03473e-17 -0.213725 6.12023e-20 -8.08259e-19 -0.000290858 2.03462e-15 1.54064e-16 1.31849e-29 0.001415 
8820 1 0.00980992 -0.0172644 0.0104921 0 0 0 0 0 -0.213725 0 0 -0.000290858 0 0 0 0.001415 
3529 1 0.0670132 -0.0166749 0.0107921 0 0 0 0 0 -0.213725 0 0 -0.000290858 0 0 0 0.001415 
4473 1 -0.0215554 -0.0144106 0.0102688 0 0 0 0 0 -0.213725 0 0 -0.000290858 0 0 0 0.001415 
5437 1 0.0244153 -0.0132218 0.0101458 0 0 0 4.48401e-18 -8.52029e-18 -0.213725 1.38197e-19 -2.62595e-19 -0.000290858 5.74042e-16 3.02104e-16 1.30805e-30 0.001415 
2099 1 -0.0146787 -0.0109948 0.00987851 0 0 0 1.14765e-18 2.08229e-19 -0.213725 6.98776e-20 1.26785e-20 -0.000290858 1.59743e-17 -8.8042e-17 8.44125e-32 0.001415 
3528 1 0.0516347 -0.000942708 0.00958078 0 0 0 -9.05504e-18 -4.11823e-18 -0.213725 -1.85616e-19 -8.4418e-20 -0.000290858 -1.81418e-16 3.98896e-16 1.37763e-30 0.001415 
2457 1 0.0227749 0.00368251 0.00990376 0 0 0 0 0 -0.213725 0 0 -0.000290858 0 0 0 0.001415 
6445 1 -0.0495051 0.00927345 0.0106652 0 0 0 -4.29022e-20 5.22649e-20 -0.213725 -3.14597e-21 3.83252e-21 -0.000290858 -6.8448e-17 -5.61862e-17 8.55769e-31 0.001415 
4431 1 -0.0620527 0.012605 0.0106597 0 0 0 -1.73693e-17 3.71047e-18 -0.213725 -5.07372e-19 1.08386e-19 -0.000290858 -4.44507e-16 -2.08081e-15 -1.6833e-29 0.001415 
4346 1 0.0459771 0.0129104 0.00917624 0 0 0 -4.92817e-18 -1.73216e-18 -0.213725 -1.16153e-19 -4.08256e-20 -0.000290858 -8.24284e-17 2.34518e-16 -4.30385e-31 0.001415 
5820 1 0.0722357 0.0116248 0.0104542 0 0 0 4.5535e-18 -4.37667e-18 -0.213725 9.34638e-20 -8.98343e-20 -0.000290858 -2.01959e-16 -2.10118e-16 -1.7538e-30 0.001415 
9995 1 -0.0283179 0.0187371 0.00913558 0 0 0 1.75261e-18 1.67426e-18 -0.213725 -1.57062e-24 -1.50041e-24 -0.000290858 -7.58358e-18 7.93845e-18 1.07771e-32 0.001415 
1280 1 -0.00826091 0.0224106 0.00978095 0 0 0 7.20059e-19 2.66731e-19 -0.213725 -6.45287e-25 -2.39033e-25 -0.000290858 -8.98026e-19 2.42428e-18 -9.39165e-34 0.001415 
3551 1 0.0378271 0.027027 0.00921198 0 0 0 1.07715e-18 -6.30146e-18 -0.213725 -9.65302e-25 5.64711e-24 -0.000290858 3.71282e-17 6.34661e-18 -1.16605e-32 0.001415 
3968 1 -0.0261983 0.0364757 0.0105971 0 0 0 8.09946e-18 -2.53389e-17 -0.213725 1.65985e-19 -5.19278e-19 -0.000290858 -2.25101e-15 -7.19526e-16 1.03059e-30 0.001415 
9745 1 -0.0323504 0.0411674 0.00990339 0 0 0 0 0 -0.213725 0 0 -0.000290858 0 0 0 0.001415 
485 1 0.0142511 0.04219 0.00964262 0 0 0 -2.85387e-18 2.41893e-18 -0.213725 2.55752e-24 -2.16775e-24 -0.000290858 -1.26418e-17 -1.49148e-17 1.11467e-32 0.001415 
4098 1 0.0474587 0.0419422 0.00984801 0 0 0 4.12172e-19 -1.40148e-19 -0.213725 3.86664e-20 -1.31474e-20 -0.000290858 -8.61273e-18 -2.53299e-17 -1.2372e-31 0.001415 
4639 1 0.000319678 0.0462251 0.0102292 0 0 0 -3.16499e-18 1.70421e-18 -0.213725 1.31941e-19 -7.10442e-20 -0.000290858 1.47099e-16 2.73186e-16 -1.06279e-30 0.001415 
7349 1 0.0388392 0.0490157 0.0101972 0 0 0 -3.92404e-19 -6.63591e-18 -0.213725 -1.29572e-20 -2.19117e-19 -0.000290858 -5.48772e-16 3.24508e-17 -8.84516e-31 0.001415 
3318 1 0.0108764 -0.0748018 0.0122863 0 0 0 0 0 -0.213725 0 0 -0.000290858 0 0 0 0.001415 
5121 1 -0.0078553 -0.064238 0.0110392 0 0 0 -4.83218e-18 -1.70091e-18 -0.213725 -1.6505e-19 -5.80973e-20 -0.000290858 -2.90789e-16 8.26111e-16 2.35616e-29 0.001415 
6407 1 -0.0157638 -0.0542001 0.0119086 0 0 0 -8.10153e-18 2.36191e-18 -0.213725 -1.66366e-19 4.85022e-20 -0.000290858 -9.05705e-17 -3.10664e-16 -1.22373e-30 0.001415 
4748 1 -0.0463698 -0.05198 0.0126588 0 0 0 1.23979e-17 -1.81272e-18 -0.213725 1.20769e-19 -1.76578e-20 -0.000290858 -6.04522e-16 -4.13457e-15 9.99178e-30 0.001415 
8903 1 0.00719176 -0.0530399 0.0124344 0 0 0 -1.17397e-18 9.9112e-18 -0.213725 -4.28263e-20 3.6156e-19 -0.000290858 -1.99341e-15 -2.36118e-16 2.01299e-29 0.001415 
8421 1 -0.0125515 -0.050364 0.0121118 0 0 0 0 0 -0.213725 0 0 -0.000290858 0 0 0 0.001415 
5040 1 0.0412118 -0.051077 0.0116889 0 0 0 0 0 -0.213725 0 0 -0.000290858 0 0 0 0.001415 
9218 1 -0.0344149 -0.0491301 0.0111957 0 0 0 -3.46435e-18 8.96736e-18 -0.213725 -1.23207e-19 3.18917e-19 -0.000290858 -1.35875e-15 -5.24924e-16 -9.89168e-30 0.001415 
8294 1 0.0417911 -0.0460756 0.011457 0 0 0 0 0 -0.213725 0 0 -0.000290858 0 0 0 0.001415 
8781 1 0.0111727 -0.0390904 0.0111021 0 0 0 -1.44038e-17 -6.57093e-18 -0.213725 -2.97361e-19 -1.35654e-19 -0.000290858 -1.12667e-15 2.46973e-15 2.02767e-30 0.001415 
7141 1 -0.0440609 -0.0300013 0.0126495 0 0 0 0 0 -0.213725 0 0 -0.000290858 0 0 0 0.001415 
6550 1 -0.00716818 -0.0295154 0.0122677 0 0 0 -2.45649e-18 3.98139e-19 -0.213725 -5.04634e-20 8.17893e-21 -0.000290858 -1.4621e-17 -9.02104e-17 3.12998e-33 0.001415 
9788 1 -0.0191042 -0.0222982 0.0125014 0 0 0 -5.63238e-19 -7.00369e-19 -0.213725 -9.77169e-20 -1.21508e-19 -0.000290858 1.75246e-15 -1.40933e-15 1.62647e-29 0.001415 
1405 1 0.0162037 -0.0193109 0.0123572 0 0 0 -1.60074e-17 -4.68299e-18 -0.213725 -4.92774e-19 -1.44162e-19 -0.000290858 5.16171e-16 -1.76437e-15 7.7731e-30 0.001415 
8819 1 0.00974619 -0.0192248 0.0125322 0 0 0 6.89318e-19 2.12012e-17 -0.213725 2.01132e-20 6.18619e-19 -0.000290858 -1.4079e-15 4.5775e-17 -1.73326e-29 0.001415 
4472 1 -0.0211077 -0.0159411 0.0126068 0 0 0 -8.20925e-18 2.80616e-17 -0.213725 -2.19476e-19 7.50231e-19 -0.000290858 -4.06912e-15 -1.1904e-15 -2.97453e-29 0.001415 
4389 1 -0.00210167 -0.0164576 0.0112988 0 0 0 2.18388e-18 -1.06462e-18 -0.213725 9.14898e-20 -4.46002e-20 -0.000290858 -2.21105e-16 -4.53559e-16 9.55693e-31 0.001415 
2098 1 -0.0163785 -0.0113032 0.0121201 0 0 0 -3.36742e-18 -6.10983e-19 -0.213725 -6.98756e-20 -1.26782e-20 -0.000290858 1.28432e-17 -7.0785e-17 -2.33714e-33 0.001415 
4518 1 0.00403554 -0.00678852 0.0108507 0 0 0 -1.0858e-17 1.29622e-17 -0.213725 -3.09818e-19 3.6986e-19 -0.000290858 -1.79747e-15 -1.50567e-15 -4.21146e-29 0.001415 
9888 1 -0.0548111 -0.00420847 0.0108934 0 0 0 2.56258e-18 -3.20062e-18 -0.213725 9.56577e-20 -1.19475e-19 -0.000290858 -4.50389e-16 -3.60604e-16 -7.37134e-30 0.001415 
3527 1 0.053278 -0.000195356 0.0117602 0 0 0 9.05504e-18 4.11823e-18 -0.213725 1.85616e-19 8.4418e-20 -0.000290858 -1.81418e-16 3.98896e-16 1.37763e-30 0.001415 
4852 1 -0.0576017 0.00160357 0.0125212 0 0 0 5.34039e-18 8.76245e-18 -0.213725 1.90099e-19 3.11913e-19 -0.000290858 -6.8611e-16 4.18158e-16 3.72125e-29 0.001415 
2456 1 0.0231999 0.00341526 0.0126889 0 0 0 -1.64085e-16 1.03189e-16 -0.213725 -2.56107e-18 1.61059e-18 -0.000290858 -2.4501e-16 -3.89601e-16 -5.13115e-30 0.001415 
1470 1 -0.0541433 0.00552442 0.0111409 0 0 0 1.27196e-17 1.22573e-17 -0.213725 3.74451e-19 3.60842e-19 -0.000290858 -1.83022e-15 1.89925e-15 6.31374e-29 0.001415 
7478 1 0.0063252 0.00556124 0.0109871 0 0 0 0 0 -0.213725 0 0 -0.000290858 0 0 0 0.001415 
5545 1 -0.0302182 0.00727945 0.0112812 0 0 0 0 0 -0.213725 0 0 -0.000290858 0 0 0 0.001415 
4367 1 0.0426483 0.0117219 0.0111869 0 0 0 -5.57626e-18 5.03019e-18 -0.213725 -2.08562e-19 1.88138e-19 -0.000290858 -5.46229e-17 -6.05526e-17 4.30319e-30 0.001415 
4345 1 0.0473197 0.0133822 0.0116224 0 0 0 5.65647e-18 1.98814e-18 -0.213725 1.16153e-19 4.08254e-20 -0.000290858 -8.21598e-17 2.33754e-16 -4.30352e-31 0.001415 
9994 1 -0.0272948 0.0197145 0.0115864 0 0 0 -1.17885e-17 -1.12615e-17 -0.213725 -3.55802e-19 -3.39896e-19 -0.000290858 1.21626e-15 -1.27318e-15 1.85249e-29 0.001415 
1279 1 -0.00741294 0.0227247 0.0124626 0 0 0 -1.39582e-17 -5.17053e-18 -0.213725 -4.13728e-19 -1.53257e-19 -0.000290858 -7.18952e-17 1.94086e-16 -9.59769e-30 0.001415 
2812 1 0.0619348 0.0249338 0.0111395 0 0 0 1.19102e-18 6.04315e-18 -0.213725 5.2786e-20 2.67832e-19 -0.000290858 3.38246e-16 -6.66636e-17 -2.22083e-29 0.001415 
4219 1 0.00713294 0.0263879 0.010949 0 0 0 8.38908e-19 -6.20007e-18 -0.213725 3.74936e-20 -2.77102e-19 -0.000290858 8.79651e-16 1.19022e-16 -3.41972e-30 0.001415 
3552 1 0.038076 0.0255707 0.0116257 0 0 0 -7.54873e-19 4.41608e-18 -0.213725 -3.15463e-20 1.84549e-19 -0.000290858 -9.40568e-16 -1.60778e-16 1.72403e-29 0.001415 
9955 1 0.0480973 0.0295036 0.0119211 0 0 0 0 0 -0.213725 0 0 -0.000290858 0 0 0 0.001415 
6216 1 -0.023401 0.0310553 0.0110184 0 0 0 -1.37028e-18 -6.37121e-18 -0.213725 -2.86568e-20 -1.33242e-19 -0.000290858 -1.56499e-16 3.36588e-17 -3.64429e-31 0.001415 
8775 1 0.0134757 0.0326995 0.0115044 0 0 0 -4.81835e-19 8.10911e-19 -0.213725 -2.97951e-20 5.01441e-20 -0.000290858 3.43355e-16 2.04018e-16 -2.88277e-30 0.001415 
7874 1 -0.0157052 0.0360712 0.0112324 0 0 0 -2.16492e-18 -2.56076e-18 -0.213725 -4.44179e-20 -5.25394e-20 -0.000290858 1.33851e-16 -1.1316e-16 -1.6076e-31 0.001415 
4099 1 0.0465216 0.0422608 0.0124993 0 0 0 -1.87175e-18 6.36438e-19 -0.213725 -3.86651e-20 1.3147e-20 -0.000290858 -7.092e-18 -2.08575e-17 -1.22258e-31 0.001415 
9746 1 -0.0326219 0.0429159 0.012112 0 0 0 1.90607e-18 -1.22758e-17 -0.213725 6.57339e-20 -4.2335e-19 -0.000290858 2.1933e-15 3.40556e-16 -1.85819e-29 0.001415 
486 1 0.0131757 0.0431015 0.0120965 0 0 0 1.80816e-17 -1.53259e-17 -0.213725 5.01934e-19 -4.25438e-19 -0.000290858 2.6524e-15 3.12931e-15 -1.06508e-29 0.001415 
8316 1 0.0241447 0.055508 0.0126641 0 0 0 0 0 -0.213725 0 0 -0.000290858 0 0 0 0.001415 
6048 1 -0.0014895 0.0671831 0.0115117 0 0 0 -1.12718e-17 -6.77349e-19 -0.213725 -3.96981e-19 -2.38555e-20 -0.000290858 5.29366e-17 -8.80924e-16 2.58629e-30 0.001415 
3317 1 0.00879117 -0.0741345 0.0140795 0 0 0 5.19646e-16 -1.66294e-16 -0.213725 1.80227e-17 -5.76752e-18 -0.000290858 -5.081e-16 -1.58774e-15 -3.07839e-29 0.001415 
4537 1 0.0348065 -0.0668743 0.0140574 0 0 0 1.69787e-16 -3.30648e-16 -0.213725 6.00883e-18 -1.17018e-17 -0.000290858 5.49103e-15 2.81963e-15 -4.04974e-29 0.001415 
5120 1 -0.00732864 -0.0640527 0.0138136 0 0 0 -2.06796e-16 -7.27916e-17 -0.213725 -7.46845e-18 -2.62887e-18 -0.000290858 1.16692e-15 -3.31513e-15 2.54052e-29 0.001415 
4749 1 -0.0443437 -0.0522762 0.0146122 0 0 0 -3.80254e-16 5.55975e-17 -0.213725 -1.46841e-17 2.14698e-18 -0.000290858 6.82508e-16 4.66795e-15 -8.15847e-30 0.001415 
6408 1 -0.0176936 -0.0536375 0.0139007 0 0 0 5.57494e-16 -1.62531e-16 -0.213725 1.92308e-17 -5.60653e-18 -0.000290858 3.2791e-16 1.12476e-15 1.47587e-28 0.001415 
9217 1 -0.0337766 -0.0507822 0.013403 0 0 0 -1.72789e-16 4.4726e-16 -0.213725 -2.20561e-18 5.70917e-18 -0.000290858 -1.34544e-15 -5.19783e-16 2.41812e-28 0.001415 
5039 1 0.0393096 -0.0515993 0.0137182 0 0 0 5.08974e-16 1.39754e-16 -0.213725 1.81198e-17 4.97533e-18 -0.000290858 -9.62818e-17 3.50651e-16 3.52907e-29 0.001415 
8420 1 -0.0130316 -0.0490822 0.0145888 0 0 0 1.68605e-16 -4.50209e-16 -0.213725 6.03e-18 -1.61013e-17 -0.000290858 2.99579e-15 1.12193e-15 6.31346e-29 0.001415 
8293 1 0.0410995 -0.0444363 0.0136578 0 0 0 2.21668e-16 -5.25394e-16 -0.213725 7.7694e-18 -1.84149e-17 -0.000290858 -5.85676e-15 -2.47101e-15 7.63511e-29 0.001415 
8782 1 0.00995582 -0.0396456 0.0135961 0 0 0 3.78974e-16 1.72886e-16 -0.213725 1.40363e-17 6.40328e-18 -0.000290858 1.56108e-15 -3.42197e-15 -7.3462e-29 0.001415 
164 1 0.0235073 -0.0400101 0.012797 0 0 0 1.42838e-17 1.90654e-16 -0.213725 3.6287e-19 4.84342e-18 -0.000290858 -3.15655e-15 2.36489e-16 8.89491e-30 0.001415 
1765 1 -0.00582286 -0.0341936 0.0143509 0 0 0 4.33798e-16 -1.35752e-16 -0.213725 1.57236e-17 -4.9205e-18 -0.000290858 -1.86486e-15 -5.9592e-15 -3.8713e-29 0.001415 
2898 1 -0.0015393 -0.0260351 0.0146231 0 0 0 3.15924e-16 -6.23664e-17 -0.213725 1.11524e-17 -2.20158e-18 -0.000290858 6.51547e-16 3.30048e-15 -2.07945e-29 0.001415 
1113 1 0.057839 -0.0250229 0.0134797 0 0 0 4.74071e-16 2.4322e-16 -0.213725 1.67766e-17 8.60715e-18 -0.000290858 8.2181e-16 -1.60183e-15 -2.17219e-28 0.001415 
2604 1 -0.0264828 -0.0239558 0.0143476 0 0 0 4.46224e-16 -1.94283e-17 -0.213725 1.58748e-17 -6.91182e-19 -0.000290858 -3.12378e-16 -7.1746e-15 1.69944e-29 0.001415 
8818 1 0.00968245 -0.0211851 0.0145723 0 0 0 1.56307e-17 4.80751e-16 -0.213725 5.64254e-19 1.73547e-17 -0.000290858 -1.16111e-15 3.77512e-17 -1.56422e-29 0.001415 
3530 1 0.0663652 -0.0174708 0.0134295 0 0 0 3.00161e-16 3.68658e-16 -0.213725 1.01505e-17 1.24668e-17 -0.000290858 -3.07082e-15 2.50026e-15 -1.79715e-28 0.001415 
8587 1 -0.0404076 -0.0166605 0.0127994 0 0 0 2.59242e-17 -3.42364e-16 -0.213725 5.83713e-19 -7.70871e-18 -0.000290858 3.62834e-15 2.74742e-16 -4.12415e-30 0.001415 
4388 1 -0.00265555 -0.0161876 0.0140609 0 0 0 2.11523e-16 -1.03115e-16 -0.213725 7.72658e-18 -3.76662e-18 -0.000290858 1.5682e-15 3.21689e-15 -8.22349e-30 0.001415 
2097 1 -0.0180782 -0.0116116 0.0143617 0 0 0 5.16322e-16 9.3681e-17 -0.213725 1.84553e-17 3.34851e-18 -0.000290858 9.00631e-16 -4.96382e-15 -9.73677e-29 0.001415 
5436 1 0.0238697 -0.0121851 0.012722 0 0 0 -1.41094e-18 2.681e-18 -0.213725 3.59902e-20 -6.83867e-20 -0.000290858 1.07107e-15 5.63674e-16 -1.70796e-29 0.001415 
4519 1 0.0050482 -0.00799743 0.0132006 0 0 0 -2.32768e-16 2.77878e-16 -0.213725 -4.39766e-18 5.24992e-18 -0.000290858 -7.85163e-16 -6.57702e-16 3.72635e-29 0.001415 
9887 1 -0.0551901 -0.00373509 0.0136576 0 0 0 1.48328e-16 -1.85259e-16 -0.213725 5.34682e-18 -6.67809e-18 -0.000290858 2.84885e-15 2.28094e-15 -6.70678e-30 0.001415 
4853 1 -0.0586257 -7.65915e-05 0.0145553 0 0 0 2.66778e-16 4.37726e-16 -0.213725 9.54986e-18 1.56693e-17 -0.000290858 -3.09822e-15 1.88825e-15 5.2606e-29 0.001415 
9744 1 -0.0476714 0.00124731 0.0134418 0 0 0 2.6955e-18 3.07039e-18 -0.213725 1.06819e-19 1.21675e-19 -0.000290858 -2.58096e-16 2.26583e-16 3.15623e-29 0.001415 
3403 1 0.0399954 0.00144601 0.0135768 0 0 0 -4.40111e-16 2.0827e-17 -0.213725 -1.65455e-17 7.82967e-19 -0.000290858 -1.19695e-17 -2.52936e-16 -7.33949e-30 0.001415 
3526 1 0.0549212 0.000551996 0.0139397 0 0 0 -5.21694e-16 -2.37266e-16 -0.213725 -1.82271e-17 -8.28966e-18 -0.000290858 -2.51751e-15 5.53542e-15 -3.57899e-28 0.001415 
3843 1 -0.0432547 0.00201405 0.0141623 0 0 0 4.1694e-16 2.84087e-16 -0.213725 1.49897e-17 1.02134e-17 -0.000290858 4.03588e-16 -5.92324e-16 2.55621e-28 0.001415 
6238 1 0.0476834 0.00358837 0.0136978 0 0 0 5.32408e-16 -3.4256e-16 -0.213725 1.80975e-17 -1.16442e-17 -0.000290858 1.51594e-16 2.35608e-16 -1.70861e-28 0.001415 
1469 1 -0.0554428 0.00427207 0.0133207 0 0 0 3.32454e-16 3.2037e-16 -0.213725 5.17365e-18 4.9856e-18 -0.000290858 1.27986e-15 -1.32813e-15 -1.49828e-28 0.001415 
7479 1 0.00708078 0.00479504 0.0136046 0 0 0 -2.79127e-16 2.83053e-16 -0.213725 -1.01126e-17 1.02548e-17 -0.000290858 -2.9609e-15 -2.91984e-15 -7.83697e-29 0.001415 
6444 1 -0.0485008 0.00805 0.0130112 0 0 0 -6.30737e-18 7.68386e-18 -0.213725 -2.41592e-19 2.94316e-19 -0.000290858 -1.73964e-15 -1.428e-15 -4.51426e-29 0.001415 
5546 1 -0.0286421 0.00814112 0.0134681 0 0 0 -5.29473e-16 -2.8947e-16 -0.213725 -1.82744e-17 -9.99089e-18 -0.000290858 -2.92188e-15 5.34444e-15 -1.10238e-28 0.001415 
7897 1 0.0202104 0.0106666 0.012864 0 0 0 3.28015e-18 1.56352e-17 -0.213725 1.02991e-19 4.90916e-19 -0.000290858 -9.15346e-16 1.92033e-16 1.52502e-29 0.001415 
4366 1 0.0434972 0.010956 0.0137756 0 0 0 -3.14832e-16 2.84001e-16 -0.213725 -1.12626e-17 1.01597e-17 -0.000290858 -2.11932e-15 -2.34939e-15 3.54731e-29 0.001415 
4430 1 -0.0607358 0.0123237 0.0131488 0 0 0 -3.77037e-16 8.05435e-17 -0.213725 -1.44008e-17 3.07633e-18 -0.000290858 -1.12071e-16 -5.24622e-16 2.64581e-29 0.001415 
5821 1 0.071151 0.0126674 0.0128512 0 0 0 -4.5535e-18 4.37667e-18 -0.213725 -9.34638e-20 8.98343e-20 -0.000290858 -2.01959e-16 -2.10118e-16 -1.7538e-30 0.001415 
4344 1 0.0486622 0.0138541 0.0140686 0 0 0 -4.71724e-16 -1.65802e-16 -0.213725 -1.6858e-17 -5.92526e-18 -0.000290858 5.81768e-16 -1.65519e-15 1.23927e-28 0.001415 
5629 1 -0.00809486 0.0186934 0.0139419 0 0 0 4.61428e-16 8.07203e-18 -0.213725 1.66344e-17 2.90995e-19 -0.000290858 1.54832e-16 -8.85076e-15 1.26673e-29 0.001415 
9993 1 -0.0262716 0.020692 0.0140373 0 0 0 -2.9348e-16 -2.80361e-16 -0.213725 -1.10693e-17 -1.05745e-17 -0.000290858 -1.79794e-15 1.88207e-15 8.04908e-29 0.001415 
3553 1 0.038325 0.0241144 0.0140395 0 0 0 -6.90547e-17 4.03976e-16 -0.213725 -2.58937e-18 1.5148e-17 -0.000290858 1.03245e-15 1.76484e-16 3.30353e-29 0.001415 
2811 1 0.0616855 0.0236687 0.0136586 0 0 0 9.05353e-17 4.59369e-16 -0.213725 3.23295e-18 1.64037e-17 -0.000290858 -4.91275e-15 9.68237e-16 -4.12307e-29 0.001415 
4218 1 0.00694369 0.0277865 0.0134019 0 0 0 5.85808e-17 -4.3295e-16 -0.213725 2.15763e-18 -1.59463e-17 -0.000290858 -1.69317e-15 -2.29096e-16 2.25975e-29 0.001415 
9956 1 0.047731 0.0274693 0.0138541 0 0 0 9.14501e-17 5.07894e-16 -0.213725 3.26127e-18 1.81124e-17 -0.000290858 -3.72617e-16 6.70925e-17 9.19503e-30 0.001415 
6007 1 0.0347873 0.0296881 0.013624 0 0 0 1.39241e-16 1.56017e-16 -0.213725 5.1866e-18 5.81146e-18 -0.000290858 -2.62081e-15 2.33902e-15 2.03787e-29 0.001415 
8774 1 0.0137081 0.0323084 0.0142976 0 0 0 -9.25168e-17 1.55702e-16 -0.213725 -3.33154e-18 5.60686e-18 -0.000290858 -2.64526e-15 -1.57179e-15 6.04877e-30 0.001415 
6215 1 -0.0229502 0.0331509 0.0128661 0 0 0 -2.65516e-19 -1.23453e-18 -0.213725 -3.31134e-20 -1.53963e-19 -0.000290858 1.73938e-15 -3.74095e-16 -7.03624e-30 0.001415 
3967 1 -0.0257836 0.0351781 0.0130776 0 0 0 -1.39968e-16 4.37887e-16 -0.213725 -2.13302e-18 6.67309e-18 -0.000290858 -1.62352e-15 -5.18951e-16 8.95313e-30 0.001415 
7873 1 -0.0162209 0.0354611 0.0139473 0 0 0 2.02901e-16 2.4e-16 -0.213725 7.34343e-18 8.68613e-18 -0.000290858 -5.09342e-15 4.30608e-15 6.1888e-30 0.001415 
6847 1 -0.0500743 0.0395872 0.014104 0 0 0 -5.04224e-16 2.17483e-16 -0.213725 -1.70549e-17 7.35617e-18 -0.000290858 3.28787e-15 7.62277e-15 -1.69113e-28 0.001415 
487 1 0.0121003 0.044013 0.0145504 0 0 0 3.01678e-16 -2.55702e-16 -0.213725 1.13713e-17 -9.63833e-18 -0.000290858 1.4294e-16 1.68641e-16 4.98403e-30 0.001415 
9747 1 -0.0328934 0.0446643 0.0143207 0 0 0 7.98758e-17 -5.14429e-16 -0.213725 2.84964e-18 -1.83527e-17 -0.000290858 -1.51246e-15 -2.34841e-16 -1.46374e-29 0.001415 
4638 1 0.00148191 0.0455993 0.0127325 0 0 0 4.21608e-18 -2.27018e-18 -0.213725 6.32791e-21 -3.4073e-21 -0.000290858 -1.63533e-16 -3.03707e-16 -5.14864e-30 0.001415 
7348 1 0.0388741 0.0496065 0.0129647 0 0 0 -1.38972e-17 -2.35014e-16 -0.213725 -4.98381e-19 -8.42808e-18 -0.000290858 3.88541e-15 -2.29758e-16 -4.49915e-30 0.001415 
8315 1 0.0261215 0.0546907 0.014517 0 0 0 -5.05059e-16 2.08806e-16 -0.213725 -1.75612e-17 7.2603e-18 -0.000290858 -3.54779e-16 -8.58139e-16 2.59827e-28 0.001415 
4831 1 0.0293284 0.0560787 0.0131334 0 0 0 4.05591e-16 -2.25465e-16 -0.213725 6.91357e-18 -3.8432e-18 -0.000290858 -1.93573e-15 -3.48221e-15 -1.7693e-28 0.001415 
6909 1 0.00964204 0.0590336 0.0131675 0 0 0 5.05556e-17 -3.04611e-17 -0.213725 1.2299e-18 -7.41047e-19 -0.000290858 3.23036e-15 5.36136e-15 -8.26767e-29 0.001415 
6047 1 -2.16486e-05 0.0672713 0.0139296 0 0 0 -5.07667e-16 -3.05069e-17 -0.213725 -1.80377e-17 -1.08392e-18 -0.000290858 1.27703e-16 -2.12512e-15 -6.23787e-30 0.001415 
7455 1 0.00864732 0.0657086 0.014076 0 0 0 -2.12248e-17 5.03323e-16 -0.213725 -7.69711e-19 1.82529e-17 -0.000290858 -1.44106e-15 -6.07684e-17 -1.23723e-29 0.001415 
8757 1 0.00829498 0.0765507 0.0135225 0 0 0 0 0 -0.213725 0 0 -0.000290858 0 0 0 0.001415 
3316 1 0.00670592 -0.0734672 0.0158726 0 0 0 -5.19646e-16 1.66294e-16 -0.213725 -1.80227e-17 5.76752e-18 -0.000290858 -5.081e-16 -1.58774e-15 -3.07839e-29 0.001415 
2499 1 0.0564696 -0.0568217 0.0160195 0 0 0 4.43526e-18 -1.01475e-17 -0.213725 9.24952e-20 -2.11622e-19 -0.000290858 -2.01169e-16 -8.79265e-17 -5.43301e-31 0.001415 
8902 1 0.00739974 -0.0547957 0.0146441 0 0 0 -6.08076e-17 5.13366e-16 -0.213725 -2.19778e-18 1.85546e-17 -0.000290858 1.13951e-16 1.34974e-17 2.99683e-29 0.001415 
4054 1 -0.0359786 -0.0521436 0.0163061 0 0 0 0 0 -0.213725 0 0 -0.000290858 0 0 0 0.001415 
9216 1 -0.0331383 -0.0524344 0.0156102 0 0 0 1.68094e-16 -4.35107e-16 -0.213725 -4.22641e-19 1.09399e-18 -0.000290858 1.71254e-15 6.61603e-16 1.55555e-28 0.001415 
6409 1 -0.0196234 -0.0530749 0.0158927 0 0 0 -5.57494e-16 1.62531e-16 -0.213725 -1.92308e-17 5.60653e-18 -0.000290858 3.2791e-16 1.12476e-15 1.47587e-28 0.001415 
5038 1 0.0374074 -0.0521216 0.0157474 0 0 0 -4.70693e-16 -1.29243e-16 -0.213725 -1.71285e-17 -4.70314e-18 -0.000290858 1.77171e-16 -6.45243e-16 7.80738e-29 0.001415 
8292 1 0.0404079 -0.0427971 0.0158586 0 0 0 -2.15592e-16 5.10992e-16 -0.213725 -7.56863e-18 1.79391e-17 -0.000290858 -6.18026e-15 -2.6075e-15 1.19615e-28 0.001415 
163 1 0.0234703 -0.0405039 0.0155833 0 0 0 -1.42265e-17 -1.89889e-16 -0.213725 -3.08523e-19 -4.11802e-18 -0.000290858 -2.46993e-15 1.85048e-16 1.01264e-29 0.001415 
8783 1 0.00873888 -0.0402008 0.01609 0 0 0 -3.7184e-16 -1.69631e-16 -0.213725 -1.37756e-17 -6.28435e-18 -0.000290858 1.33245e-15 -2.92079e-15 -5.41371e-29 0.001415 
1766 1 -0.00794199 -0.0335305 0.0161054 0 0 0 -4.01543e-16 1.25658e-16 -0.213725 -1.48883e-17 4.65912e-18 -0.000290858 -1.6554e-15 -5.28988e-15 -1.84772e-30 0.001415 
7142 1 -0.0430179 -0.0310366 0.015068 0 0 0 -3.36185e-16 3.33697e-16 -0.213725 -1.21483e-17 1.20584e-17 -0.000290858 2.10863e-15 2.12435e-15 -1.9502e-28 0.001415 
6549 1 -0.00774795 -0.0294214 0.0150361 0 0 0 2.43385e-16 -3.94469e-17 -0.213725 8.64007e-18 -1.40035e-18 -0.000290858 5.85612e-16 3.61318e-15 3.60374e-30 0.001415 
1112 1 0.0563793 -0.0257718 0.0157856 0 0 0 -4.74071e-16 -2.4322e-16 -0.213725 -1.67766e-17 -8.60715e-18 -0.000290858 8.2181e-16 -1.60183e-15 -2.17219e-28 0.001415 