ITEM: TIMESTEP
55000
ITEM: NUMBER OF ATOMS
10248
ITEM: BOX BOUNDS ff ff ff
-0.2 0.2
-0.2 0.2
-0.01 0.5
ITEM: ATOMS id type x y z ix iy iz vx vy vz fx fy fz omegax omegay omegaz radius 
5124 1 -0.00943529 -0.0647942 0.00277976 0 0 0 -1.04563e-17 -3.6806e-18 -0.210784 9.31106e-24 3.27746e-24 -0.000290862 2.4103e-16 -6.8475e-16 1.33825e-32 0.001415 
168 1 0.0236553 -0.0380352 0.00171526 0 0 0 5.74211e-18 7.66431e-17 -0.210784 1.3854e-19 1.84917e-18 -0.000290862 -2.48126e-16 1.85896e-17 -5.88656e-31 0.001415 
9891 1 -0.0536741 -0.00562861 0.00266424 0 0 0 6.91725e-18 -8.63953e-18 -0.210784 -6.1596e-24 7.69325e-24 -0.000290862 6.56036e-16 5.25255e-16 -2.86265e-31 0.001415 
8778 1 0.0127785 0.033873 0.00318854 0 0 0 -4.16819e-18 7.0149e-18 -0.210784 3.71165e-24 -6.24656e-24 -0.000290862 -4.39583e-16 -2.61196e-16 3.60371e-31 0.001415 
167 1 0.0236183 -0.0385289 0.00450161 0 0 0 -5.22812e-18 -6.97825e-17 -0.210784 -1.22123e-19 -1.63004e-18 -0.000290862 -2.37681e-16 1.78071e-17 1.0077e-30 0.001415 
5439 1 0.0255064 -0.015295 0.00505711 0 0 0 6.69771e-19 -1.27266e-18 -0.210784 -5.96411e-25 1.13327e-24 -0.000290862 -5.23941e-18 -2.75737e-18 2.22112e-33 0.001415 
4096 1 0.0493328 0.0413049 0.00460912 0 0 0 5.17818e-18 -1.7607e-18 -0.210784 1.36051e-19 -4.62603e-20 -0.000290862 -5.57801e-17 -1.64048e-16 2.24649e-31 0.001415 
5123 1 -0.00890863 -0.0646088 0.00555414 0 0 0 9.51993e-18 3.35099e-18 -0.210784 -8.47721e-24 -2.98395e-24 -0.000290862 2.3958e-16 -6.80631e-16 1.61869e-32 0.001415 
8779 1 0.0136066 -0.0379801 0.0061779 0 0 0 1.14885e-19 5.24098e-20 -0.210784 -1.02302e-25 -4.66694e-26 -0.000290862 -4.07842e-19 8.9401e-19 -5.00794e-34 0.001415 
6552 1 -0.00600865 -0.0297033 0.00679466 0 0 0 7.94183e-19 -1.28718e-19 -0.210784 -7.07196e-25 1.1462e-25 -0.000290862 -4.68507e-19 -2.89065e-18 -2.04108e-34 0.001415 
9890 1 -0.0540531 -0.00515523 0.0054285 0 0 0 -6.0052e-18 7.5004e-18 -0.210784 5.34745e-24 -6.67888e-24 -0.000290862 6.50028e-16 5.20446e-16 -2.86585e-31 0.001415 
4516 1 0.00201022 -0.00437069 0.00621459 0 0 0 -1.07234e-18 1.28016e-18 -0.210784 9.5489e-25 -1.13995e-24 -0.000290862 4.69483e-18 3.93269e-18 -1.24823e-32 0.001415 
5818 1 0.0744051 0.00953964 0.00572404 0 0 0 2.3687e-19 -2.27672e-19 -0.210784 -2.10926e-25 2.02735e-25 -0.000290862 -2.532e-19 -2.6343e-19 -1.71795e-34 0.001415 
6447 1 -0.0515136 0.0117203 0.00603697 0 0 0 -1.10178e-18 1.34223e-18 -0.210784 9.81104e-25 -1.19521e-24 -0.000290862 4.42269e-18 3.63041e-18 -1.38201e-32 0.001415 
4347 1 0.0446345 0.0124385 0.00679375 0 0 0 -7.28309e-19 -2.55986e-19 -0.210784 6.48537e-25 2.27948e-25 -0.000290862 -2.68521e-19 7.63972e-19 -3.25108e-35 0.001415 
9996 1 -0.0293411 0.0177597 0.0067484 0 0 0 -1.75263e-18 -1.67428e-18 -0.210784 1.56066e-24 1.4909e-24 -0.000290862 -7.5837e-18 7.93858e-18 1.07773e-32 0.001415 
4221 1 0.00751144 0.0235905 0.00610684 0 0 0 3.08448e-20 -2.27963e-19 -0.210784 -2.74664e-26 2.02995e-25 -0.000290862 4.14659e-19 5.61059e-20 1.08557e-34 0.001415 
3550 1 0.0375782 0.0284832 0.0068619 0 0 0 -1.07716e-18 6.30151e-18 -0.210784 9.59183e-25 -5.61131e-24 -0.000290862 3.71288e-17 6.34671e-18 -1.16607e-32 0.001415 
2814 1 0.0624335 0.0274639 0.00616476 0 0 0 1.4242e-19 7.22629e-19 -0.210784 -1.26821e-25 -6.43479e-25 -0.000290862 1.17367e-18 -2.31314e-19 1.95781e-33 0.001415 
8777 1 0.0130109 0.0334818 0.00598173 0 0 0 3.9684e-18 -6.67867e-18 -0.210784 -3.53374e-24 5.94715e-24 -0.000290862 -4.3881e-16 -2.60737e-16 3.6025e-31 0.001415 
4641 1 -0.00200478 0.0474767 0.00528631 0 0 0 -2.1065e-18 1.13426e-18 -0.210784 1.87577e-24 -1.01002e-24 -0.000290862 5.34896e-18 9.93388e-18 -2.4655e-33 0.001415 
5122 1 -0.00838197 -0.0644234 0.00832852 0 0 0 7.3726e-19 2.59513e-19 -0.210784 -6.4877e-21 -2.28365e-21 -0.000290862 2.24692e-17 -6.38336e-17 -4.44854e-31 0.001415 
8780 1 0.0123897 -0.0385353 0.00867185 0 0 0 1.12659e-17 5.13943e-18 -0.210784 3.00514e-19 1.37093e-19 -0.000290862 -7.9517e-16 1.74305e-15 1.33546e-30 0.001415 
166 1 0.0235813 -0.0390227 0.00728796 0 0 0 -4.57771e-19 -6.11012e-18 -0.210784 -1.64173e-20 -2.1913e-19 -0.000290862 1.17087e-17 -8.77217e-19 1.59626e-30 0.001415 
1407 1 0.0135434 -0.0200891 0.007486 0 0 0 -6.80119e-19 -1.9897e-19 -0.210784 6.05626e-25 1.77177e-25 -0.000290862 -4.8009e-19 1.64104e-18 -6.54911e-34 0.001415 
8589 1 -0.0402517 -0.0187189 0.00759296 0 0 0 5.78209e-20 -7.63603e-19 -0.210784 -5.14878e-26 6.79966e-25 -0.000290862 3.63297e-18 2.75093e-19 -1.53638e-32 0.001415 
5438 1 0.0249608 -0.0142584 0.00763329 0 0 0 1.16992e-18 -2.22302e-18 -0.210784 -1.04178e-24 1.97953e-24 -0.000290862 -4.66948e-16 -2.45743e-16 -3.02888e-31 0.001415 
2100 1 -0.012979 -0.0106864 0.00770061 0 0 0 2.11248e-18 3.83286e-19 -0.210784 -1.8811e-24 -3.41305e-25 -0.000290862 2.96334e-18 -1.63324e-17 7.00632e-32 0.001415 
9889 1 -0.0544321 -0.00468185 0.00819276 0 0 0 -9.12049e-19 1.13913e-18 -0.210784 8.12152e-25 -1.01437e-24 -0.000290862 -6.00753e-18 -4.80993e-18 -3.20222e-34 0.001415 
4517 1 0.00302288 -0.0055796 0.00856447 0 0 0 1.07234e-18 -1.28016e-18 -0.210784 -9.5489e-25 1.13995e-24 -0.000290862 4.69483e-18 3.93269e-18 -1.24823e-32 0.001415 
7477 1 0.00556963 0.00632744 0.00843337 0 0 0 0 0 -0.210784 0 0 -0.000290862 0 0 0 0.001415 
6446 1 -0.0505093 0.0104969 0.00838293 0 0 0 -4.89918e-19 5.96835e-19 -0.210784 -4.25386e-20 5.1822e-20 -0.000290862 -4.30776e-18 -3.53606e-18 1.56647e-31 0.001415 
5819 1 0.0733204 0.0105822 0.00812098 0 0 0 -2.3687e-19 2.27672e-19 -0.210784 2.10926e-25 -2.02735e-25 -0.000290862 -2.532e-19 -2.6343e-19 -1.71795e-34 0.001415 
4368 1 0.0417993 0.0124877 0.00866178 0 0 0 0 0 -0.210784 0 0 -0.000290862 0 0 0 0.001415 
1281 1 -0.00910888 0.0220965 0.00716299 0 0 0 -7.20065e-19 -2.66734e-19 -0.210784 6.41197e-25 2.37518e-25 -0.000290862 -8.98041e-19 2.42432e-18 -9.3918e-34 0.001415 
4220 1 0.00732219 0.0249892 0.00855975 0 0 0 6.08888e-19 -4.50007e-18 -0.210784 1.72205e-20 -1.2727e-19 -0.000290862 -4.23937e-17 -5.73613e-18 -3.66658e-32 0.001415 
2813 1 0.0621842 0.0261988 0.00868394 0 0 0 4.66473e-19 2.36684e-18 -0.210784 1.6575e-20 8.41004e-20 -0.000290862 -2.04407e-17 4.02858e-18 -5.57138e-32 0.001415 
8776 1 0.0132433 0.0330907 0.00877492 0 0 0 -1.69773e-19 2.85721e-19 -0.210784 -1.00783e-20 1.69614e-20 -0.000290862 -6.20329e-18 -3.68593e-18 7.41441e-32 0.001415 
3969 1 -0.0266131 0.0377733 0.00818023 0 0 0 -6.40899e-18 2.00503e-17 -0.210784 -1.68352e-19 5.26682e-19 -0.000290862 -1.643e-15 -5.25178e-16 7.24854e-31 0.001415 
7875 1 -0.0151895 0.0366812 0.00858116 0 0 0 1.71255e-18 2.02568e-18 -0.210784 4.50556e-20 5.32937e-20 -0.000290862 8.19421e-17 -6.92756e-17 -1.70168e-32 0.001415 
484 1 0.0153265 0.0412785 0.00725241 0 0 0 2.85389e-18 -2.41896e-18 -0.210784 -2.54131e-24 2.15401e-24 -0.000290862 -1.2642e-17 -1.49151e-17 1.11469e-32 0.001415 
4097 1 0.0483957 0.0416236 0.0072604 0 0 0 -3.71859e-18 1.2644e-18 -0.210784 -1.36052e-19 4.62607e-20 -0.000290862 -5.73008e-17 -1.68521e-16 2.23187e-31 0.001415 
4640 1 -0.000842548 0.0468509 0.00778961 0 0 0 1.23238e-18 -6.63584e-19 -0.210784 -1.10953e-19 5.97434e-20 -0.000290862 -7.92186e-18 -1.47122e-17 -4.89231e-32 0.001415 
7350 1 0.0388042 0.0484249 0.00749347 0 0 0 -4.44045e-21 -7.50921e-20 -0.210784 3.95409e-27 6.68672e-26 -0.000290862 2.59571e-19 -1.53493e-20 3.6728e-36 0.001415 
6406 1 -0.013834 -0.0547628 0.00998025 0 0 0 6.40771e-18 -1.8681e-18 -0.210784 1.68656e-19 -4.91698e-20 -0.000290862 -5.54434e-17 -1.90175e-16 -9.99329e-31 0.001415 
4747 1 -0.048396 -0.0516837 0.010769 0 0 0 -1.90289e-17 2.78224e-18 -0.210784 -5.0248e-19 7.34683e-20 -0.000290862 -1.24189e-16 -8.49379e-16 -1.83276e-31 0.001415 
8904 1 0.00698378 -0.051284 0.0102884 0 0 0 0 0 -0.210784 0 0 -0.000290862 0 0 0 0.001415 
9219 1 -0.0350531 -0.0474779 0.00905213 0 0 0 0 0 -0.210784 0 0 -0.000290862 0 0 0 0.001415 
8295 1 0.0424827 -0.0477148 0.00931985 0 0 0 0 0 -0.210784 0 0 -0.000290862 0 0 0 0.001415 
165 1 0.0235443 -0.0395164 0.0100743 0 0 0 3.35249e-20 4.47475e-19 -0.210784 4.67278e-21 6.23701e-20 -0.000290862 1.7861e-16 -1.33815e-17 4.17026e-30 0.001415 
6551 1 -0.00658842 -0.0296093 0.00956304 0 0 0 1.14843e-18 -1.86134e-19 -0.210784 5.11755e-20 -8.29434e-21 -0.000290862 -8.44798e-18 -5.21234e-17 4.26844e-33 0.001415 
9787 1 -0.0202299 -0.023698 0.0103782 0 0 0 -2.68952e-18 -3.34434e-18 -0.210784 -7.14419e-20 -8.88358e-20 -0.000290862 -9.00621e-17 7.24281e-17 -2.43118e-31 0.001415 
1406 1 0.0148736 -0.0197 0.00995341 0 0 0 6.80119e-19 1.9897e-19 -0.210784 -6.05626e-25 -1.77177e-25 -0.000290862 -4.8009e-19 1.64104e-18 -6.54911e-34 0.001415 
8588 1 -0.0403296 -0.0176897 0.010228 0 0 0 1.70323e-18 -2.24935e-17 -0.210784 5.63072e-20 -7.43612e-19 -0.000290862 9.5308e-16 7.21683e-17 4.13984e-30 0.001415 
8820 1 0.00980992 -0.0172644 0.0105558 0 0 0 0 0 -0.210784 0 0 -0.000290862 0 0 0 0.001415 
3529 1 0.0670132 -0.0166749 0.0108558 0 0 0 0 0 -0.210784 0 0 -0.000290862 0 0 0 0.001415 
4473 1 -0.0215554 -0.0144106 0.0103325 0 0 0 0 0 -0.210784 0 0 -0.000290862 0 0 0 0.001415 
5437 1 0.0244153 -0.0132218 0.0102095 0 0 0 3.33085e-18 -6.32911e-18 -0.210784 1.38603e-19 -2.63367e-19 -0.000290862 3.37582e-16 1.77661e-16 7.98007e-31 0.001415 
2099 1 -0.0146787 -0.0109948 0.00994219 0 0 0 5.44709e-19 9.88315e-20 -0.210784 7.06411e-20 1.28171e-20 -0.000290862 1.01596e-17 -5.59945e-17 1.2233e-31 0.001415 
3528 1 0.0516347 -0.000942708 0.00964446 0 0 0 -7.16444e-18 -3.25839e-18 -0.210784 -1.88326e-19 -8.56507e-20 -0.000290862 -1.11032e-16 2.44133e-16 2.14713e-30 0.001415 
2457 1 0.0227749 0.00368251 0.00996744 0 0 0 0 0 -0.210784 0 0 -0.000290862 0 0 0 0.001415 
6445 1 -0.0495051 0.00927345 0.0107289 0 0 0 -1.72372e-20 2.09989e-20 -0.210784 -1.98767e-21 2.42145e-21 -0.000290862 -4.27117e-17 -3.50603e-17 1.51093e-31 0.001415 
4431 1 -0.0620527 0.012605 0.0107234 0 0 0 -1.25453e-17 2.67997e-18 -0.210784 -4.42554e-19 9.45395e-20 -0.000290862 -2.70296e-16 -1.2653e-15 -4.75211e-30 0.001415 
4346 1 0.0459771 0.0129104 0.00923992 0 0 0 -3.74542e-18 -1.31644e-18 -0.210784 -1.17782e-19 -4.13979e-20 -0.000290862 -4.88959e-17 1.39114e-16 -2.31997e-31 0.001415 
5820 1 0.0722357 0.0116248 0.0105179 0 0 0 3.60177e-18 -3.4619e-18 -0.210784 9.47792e-20 -9.10986e-20 -0.000290862 -1.23634e-16 -1.28629e-16 -7.49517e-31 0.001415 
9995 1 -0.0283179 0.0187371 0.00919926 0 0 0 1.75263e-18 1.67428e-18 -0.210784 -1.56066e-24 -1.4909e-24 -0.000290862 -7.5837e-18 7.93858e-18 1.07773e-32 0.001415 
1280 1 -0.00826091 0.0224106 0.00984463 0 0 0 7.20065e-19 2.66734e-19 -0.210784 -6.41197e-25 -2.37518e-25 -0.000290862 -8.98041e-19 2.42432e-18 -9.3918e-34 0.001415 
3551 1 0.0378271 0.027027 0.00927565 0 0 0 1.07716e-18 -6.30151e-18 -0.210784 -9.59183e-25 5.61131e-24 -0.000290862 3.71288e-17 6.34671e-18 -1.16607e-32 0.001415 
3968 1 -0.0261983 0.0364757 0.0106608 0 0 0 6.40899e-18 -2.00503e-17 -0.210784 1.68352e-19 -5.26682e-19 -0.000290862 -1.643e-15 -5.25178e-16 7.24854e-31 0.001415 
9745 1 -0.0323504 0.0411674 0.00996707 0 0 0 0 0 -0.210784 0 0 -0.000290862 0 0 0 0.001415 
485 1 0.0142511 0.04219 0.0097063 0 0 0 -2.85389e-18 2.41896e-18 -0.210784 2.54131e-24 -2.15401e-24 -0.000290862 -1.2642e-17 -1.49151e-17 1.11469e-32 0.001415 
4098 1 0.0474587 0.0419422 0.00991169 0 0 0 1.88664e-20 -6.415e-21 -0.210784 3.91246e-20 -1.33032e-20 -0.000290862 -2.7149e-18 -7.98449e-18 -1.09215e-31 0.001415 
4639 1 0.000319678 0.0462251 0.0102929 0 0 0 -5.52372e-18 2.97428e-18 -0.210784 -5.83937e-20 3.14425e-20 -0.000290862 1.11524e-16 2.07117e-16 -6.7551e-31 0.001415 
7349 1 0.0388392 0.0490157 0.0102609 0 0 0 -2.71101e-19 -4.58457e-18 -0.210784 -1.08885e-20 -1.84134e-19 -0.000290862 -4.9285e-16 2.91439e-17 -5.5432e-31 0.001415 
3318 1 0.0108764 -0.0748018 0.01235 0 0 0 0 0 -0.210784 0 0 -0.000290862 0 0 0 0.001415 
5121 1 -0.0078553 -0.064238 0.0111029 0 0 0 -3.2962e-18 -1.16025e-18 -0.210784 -1.36633e-19 -4.80944e-20 -0.000290862 -2.39506e-16 6.80421e-16 1.40251e-29 0.001415 
6407 1 -0.0157638 -0.0542001 0.0119723 0 0 0 -6.40771e-18 1.8681e-18 -0.210784 -1.68656e-19 4.91698e-20 -0.000290862 -5.54434e-17 -1.90175e-16 -9.99329e-31 0.001415 
4748 1 -0.0463698 -0.05198 0.0127224 0 0 0 1.08605e-17 -1.58793e-18 -0.210784 1.85711e-19 -2.71531e-20 -0.000290862 -3.68434e-16 -2.51987e-15 2.1149e-30 0.001415 
8903 1 0.00719176 -0.0530399 0.0124981 0 0 0 -7.80129e-19 6.58621e-18 -0.210784 -3.45934e-20 2.92054e-19 -0.000290862 -1.23635e-15 -1.46444e-16 1.1401e-29 0.001415 
8421 1 -0.0125515 -0.050364 0.0121755 0 0 0 0 0 -0.210784 0 0 -0.000290862 0 0 0 0.001415 
5040 1 0.0412118 -0.051077 0.0117526 0 0 0 0 0 -0.210784 0 0 -0.000290862 0 0 0 0.001415 
9218 1 -0.0344149 -0.0491301 0.0112594 0 0 0 -2.3139e-18 5.98946e-18 -0.210784 -1.01289e-19 2.62184e-19 -0.000290862 -8.67026e-16 -3.34957e-16 2.01838e-30 0.001415 
8294 1 0.0417911 -0.0460756 0.0115206 0 0 0 0 0 -0.210784 0 0 -0.000290862 0 0 0 0.001415 
8781 1 0.0111727 -0.0390904 0.0111658 0 0 0 -1.13808e-17 -5.19184e-18 -0.210784 -3.00514e-19 -1.37093e-19 -0.000290862 -7.94762e-16 1.74216e-15 1.33596e-30 0.001415 
7141 1 -0.0440609 -0.0300013 0.0127131 0 0 0 0 0 -0.210784 0 0 -0.000290862 0 0 0 0.001415 
6550 1 -0.00716818 -0.0295154 0.0123314 0 0 0 -1.94261e-18 3.14852e-19 -0.210784 -5.11747e-20 8.29422e-21 -0.000290862 -7.97948e-18 -4.92328e-17 4.47255e-33 0.001415 
9788 1 -0.0191042 -0.0222982 0.0125651 0 0 0 2.37342e-19 2.95127e-19 -0.210784 -5.86326e-20 -7.29078e-20 -0.000290862 1.06136e-15 -8.53549e-16 2.02166e-29 0.001415 
1405 1 0.0162037 -0.0193109 0.0124208 0 0 0 -1.13573e-17 -3.3226e-18 -0.210784 -4.22018e-19 -1.23462e-19 -0.000290862 3.29649e-16 -1.1268e-15 5.13359e-30 0.001415 
8819 1 0.00974619 -0.0192248 0.0125959 0 0 0 4.98057e-19 1.53187e-17 -0.210784 1.75895e-20 5.40998e-19 -0.000290862 -5.34751e-16 1.73864e-17 -9.48132e-30 0.001415 
4472 1 -0.0211077 -0.0159411 0.0126704 0 0 0 -6.08935e-18 2.08151e-17 -0.210784 -1.98338e-19 6.77976e-19 -0.000290862 -2.75696e-15 -8.06533e-16 -1.19005e-29 0.001415 
4389 1 -0.00210167 -0.0164576 0.0113625 0 0 0 1.35594e-18 -6.61004e-19 -0.210784 7.08636e-20 -3.45452e-20 -0.000290862 -1.90572e-16 -3.90926e-16 -3.99011e-31 0.001415 
2098 1 -0.0163785 -0.0113032 0.0121838 0 0 0 -2.65719e-18 -4.82118e-19 -0.210784 -7.06392e-20 -1.28167e-20 -0.000290862 7.19627e-18 -3.96621e-17 5.22666e-32 0.001415 
4518 1 0.00403554 -0.00678852 0.0109144 0 0 0 -7.88213e-18 9.40968e-18 -0.210784 -2.78937e-19 3.32994e-19 -0.000290862 -7.87509e-16 -6.59667e-16 -2.94009e-29 0.001415 
9888 1 -0.0548111 -0.00420847 0.010957 0 0 0 1.68399e-18 -2.10328e-18 -0.210784 7.67939e-20 -9.59144e-20 -0.000290862 -4.04661e-16 -3.23992e-16 -5.17668e-30 0.001415 
3527 1 0.053278 -0.000195356 0.0118239 0 0 0 7.16444e-18 3.25839e-18 -0.210784 1.88326e-19 8.56507e-20 -0.000290862 -1.11032e-16 2.44133e-16 2.14713e-30 0.001415 
4852 1 -0.0576017 0.00160357 0.0125849 0 0 0 3.58624e-18 5.88426e-18 -0.210784 1.55196e-19 2.54644e-19 -0.000290862 -2.32688e-16 1.41815e-16 2.77447e-29 0.001415 
2456 1 0.0231999 0.00341526 0.0127526 0 0 0 -1.37894e-16 8.67178e-17 -0.210784 -2.61875e-18 1.64686e-18 -0.000290862 -5.02513e-16 -7.99069e-16 -3.63515e-31 0.001415 
1470 1 -0.0541433 0.00552442 0.0112046 0 0 0 9.11201e-18 8.78082e-18 -0.210784 3.39225e-19 3.26895e-19 -0.000290862 -9.2894e-16 9.63977e-16 3.75875e-29 0.001415 
7478 1 0.0063252 0.00556124 0.0110508 0 0 0 0 0 -0.210784 0 0 -0.000290862 0 0 0 0.001415 
5545 1 -0.0302182 0.00727945 0.0113449 0 0 0 0 0 -0.210784 0 0 -0.000290862 0 0 0 0.001415 
4367 1 0.0426483 0.0117219 0.0112505 0 0 0 -3.66307e-18 3.30436e-18 -0.210784 -1.67162e-19 1.50792e-19 -0.000290862 8.62014e-17 9.55593e-17 2.89291e-30 0.001415 
4345 1 0.0473197 0.0133822 0.0116861 0 0 0 4.47373e-18 1.57243e-18 -0.210784 1.17781e-19 4.13977e-20 -0.000290862 -4.86274e-17 1.3835e-16 -2.31964e-31 0.001415 
9994 1 -0.0272948 0.0197145 0.0116501 0 0 0 -8.42381e-18 -8.04724e-18 -0.210784 -3.06567e-19 -2.92862e-19 -0.000290862 7.47363e-16 -7.82335e-16 1.22079e-29 0.001415 
1279 1 -0.00741294 0.0227247 0.0125263 0 0 0 -1.00257e-17 -3.71383e-18 -0.210784 -3.60178e-19 -1.33421e-19 -0.000290862 -1.07973e-16 2.91481e-16 -3.76949e-30 0.001415 
2812 1 0.0619348 0.0249338 0.0112031 0 0 0 7.1652e-19 3.63556e-18 -0.210784 4.02467e-20 2.04209e-19 -0.000290862 4.10636e-16 -8.09309e-17 -1.24213e-29 0.001415 
4219 1 0.00713294 0.0263879 0.0110127 0 0 0 5.02398e-19 -3.71305e-18 -0.210784 2.84116e-20 -2.0998e-19 -0.000290862 5.22417e-16 7.06862e-17 -4.99186e-31 0.001415 
3552 1 0.038076 0.0255707 0.0116894 0 0 0 -4.7006e-19 2.7499e-18 -0.210784 -2.43341e-20 1.42357e-19 -0.000290862 -5.91438e-16 -1.01099e-16 1.0527e-29 0.001415 
9955 1 0.0480973 0.0295036 0.0119848 0 0 0 0 0 -0.210784 0 0 -0.000290862 0 0 0 0.001415 
6216 1 -0.023401 0.0310553 0.0110821 0 0 0 -1.07981e-18 -5.02066e-18 -0.210784 -2.87943e-20 -1.33881e-19 -0.000290862 -9.78014e-17 2.10345e-17 -3.61579e-31 0.001415 
8775 1 0.0134757 0.0326995 0.0115681 0 0 0 -2.22334e-19 3.7418e-19 -0.210784 -2.09103e-20 3.51913e-20 -0.000290862 3.0098e-16 1.78839e-16 -1.40594e-30 0.001415 
7874 1 -0.0157052 0.0360712 0.0112961 0 0 0 -1.71255e-18 -2.02568e-18 -0.210784 -4.50556e-20 -5.32937e-20 -0.000290862 8.19421e-17 -6.92756e-17 -1.70168e-32 0.001415 
4099 1 0.0465216 0.0422608 0.012563 0 0 0 -1.47846e-18 5.02709e-19 -0.210784 -3.91233e-20 1.33028e-20 -0.000290862 -1.19414e-18 -3.51196e-18 -1.07753e-31 0.001415 
9746 1 -0.0326219 0.0429159 0.0121757 0 0 0 1.29668e-18 -8.35109e-18 -0.210784 5.41171e-20 -3.48533e-19 -0.000290862 1.35318e-15 2.10109e-16 -1.00732e-29 0.001415 
486 1 0.0131757 0.0431015 0.0121602 0 0 0 1.32667e-17 -1.12448e-17 -0.210784 4.46797e-19 -3.78705e-19 -0.000290862 1.76095e-15 2.07757e-15 5.65514e-30 0.001415 
8316 1 0.0241447 0.055508 0.0127278 0 0 0 0 0 -0.210784 0 0 -0.000290862 0 0 0 0.001415 
6048 1 -0.0014895 0.0671831 0.0115754 0 0 0 -7.59954e-18 -4.56673e-19 -0.210784 -3.24689e-19 -1.95113e-20 -0.000290862 3.18784e-17 -5.30492e-16 7.25666e-31 0.001415 
3317 1 0.00879117 -0.0741345 0.0141431 0 0 0 3.95328e-16 -1.2651e-16 -0.210784 6.62121e-18 -2.11888e-18 -0.000290862 2.21431e-16 6.91942e-16 -1.76479e-29 0.001415 
4537 1 0.0348065 -0.0668743 0.0141211 0 0 0 1.29097e-16 -2.51407e-16 -0.210784 2.0866e-18 -4.06351e-18 -0.000290862 4.07035e-15 2.09011e-15 -2.57747e-29 0.001415 
5120 1 -0.00732864 -0.0640527 0.0138773 0 0 0 -1.57426e-16 -5.54136e-17 -0.210784 -2.32389e-18 -8.18001e-19 -0.000290862 8.04484e-16 -2.28548e-15 1.49122e-29 0.001415 
4749 1 -0.0443437 -0.0522762 0.0146758 0 0 0 -2.88332e-16 4.21575e-17 -0.210784 -3.72173e-18 5.4416e-19 -0.000290862 3.18286e-16 2.17689e-15 1.0715e-30 0.001415 
6408 1 -0.0176936 -0.0536375 0.0139643 0 0 0 4.2438e-16 -1.23723e-16 -0.210784 6.89228e-18 -2.00937e-18 -0.000290862 4.93072e-16 1.69127e-15 9.1654e-29 0.001415 
9217 1 -0.0337766 -0.0507822 0.0134666 0 0 0 -1.33787e-16 3.46303e-16 -0.210784 -1.95625e-18 5.0637e-18 -0.000290862 -1.13103e-15 -4.3695e-16 9.65456e-29 0.001415 
5039 1 0.0393096 -0.0515993 0.0137818 0 0 0 3.86233e-16 1.06052e-16 -0.210784 6.1903e-18 1.69973e-18 -0.000290862 -3.19636e-16 1.16409e-15 2.21384e-29 0.001415 
8420 1 -0.0130316 -0.0490822 0.0146525 0 0 0 1.28047e-16 -3.41911e-16 -0.210784 1.98996e-18 -5.31359e-18 -0.000290862 2.24109e-15 8.39296e-16 1.50483e-29 0.001415 
8293 1 0.0410995 -0.0444363 0.0137214 0 0 0 1.6866e-16 -3.99755e-16 -0.210784 2.76941e-18 -6.56403e-18 -0.000290862 -3.06659e-15 -1.29382e-15 6.13843e-29 0.001415 
8782 1 0.00995582 -0.0396456 0.0136597 0 0 0 2.87414e-16 1.31116e-16 -0.210784 4.07068e-18 1.85702e-18 -0.000290862 7.63866e-16 -1.67443e-15 -1.66858e-29 0.001415 
164 1 0.0235073 -0.0400101 0.0128607 0 0 0 1.05448e-17 1.40748e-16 -0.210784 1.51063e-19 2.01632e-18 -0.000290862 -2.21099e-15 1.65647e-16 5.19423e-30 0.001415 
1765 1 -0.00582286 -0.0341936 0.0144146 0 0 0 3.28979e-16 -1.0295e-16 -0.210784 5.06217e-18 -1.58415e-18 -0.000290862 -8.64189e-16 -2.76154e-15 -3.96469e-29 0.001415 
2898 1 -0.0015393 -0.0260351 0.0146868 0 0 0 2.40377e-16 -4.74528e-17 -0.210784 3.8663e-18 -7.63245e-19 -0.000290862 5.36597e-16 2.71819e-15 -5.3741e-30 0.001415 
1113 1 0.057839 -0.0250229 0.0135434 0 0 0 3.60351e-16 1.84876e-16 -0.210784 5.82569e-18 2.98884e-18 -0.000290862 3.74739e-16 -7.30421e-16 -1.33859e-28 0.001415 
2604 1 -0.0264828 -0.0239558 0.0144113 0 0 0 3.38878e-16 -1.47546e-17 -0.210784 5.56358e-18 -2.42235e-19 -0.000290862 -1.35673e-16 -3.11609e-15 8.05669e-30 0.001415 
8818 1 0.00968245 -0.0211851 0.014636 0 0 0 1.18804e-17 3.65403e-16 -0.210784 1.7373e-19 5.34339e-18 -0.000290862 -1.42426e-15 4.63072e-17 -1.09877e-29 0.001415 
3530 1 0.0663652 -0.0174708 0.0134931 0 0 0 2.28789e-16 2.80998e-16 -0.210784 3.86484e-18 4.74678e-18 -0.000290862 -2.49173e-15 2.02877e-15 -6.83161e-29 0.001415 
8587 1 -0.0404076 -0.0166605 0.0128631 0 0 0 1.99133e-17 -2.62982e-16 -0.210784 6.05529e-19 -7.99682e-18 -0.000290862 3.17814e-15 2.40653e-16 2.46957e-30 0.001415 
4388 1 -0.00265555 -0.0161876 0.0141246 0 0 0 1.60787e-16 -7.8382e-17 -0.210784 2.37114e-18 -1.15591e-18 -0.000290862 1.05977e-15 2.17394e-15 -5.11667e-30 0.001415 
2097 1 -0.0180782 -0.0116116 0.0144253 0 0 0 3.92378e-16 7.11927e-17 -0.210784 6.02075e-18 1.0924e-18 -0.000290862 4.56543e-16 -2.51623e-15 -6.11314e-29 0.001415 
5436 1 0.0238697 -0.0121851 0.0127856 0 0 0 -1.63307e-18 3.10308e-18 -0.210784 5.8787e-21 -1.11704e-20 -0.000290862 5.97879e-16 3.14648e-16 -1.38859e-29 0.001415 
4519 1 0.0050482 -0.00799743 0.0132642 0 0 0 -1.87609e-16 2.23967e-16 -0.210784 -4.53309e-18 5.4116e-18 -0.000290862 -1.08687e-15 -9.10432e-16 -1.85164e-30 0.001415 
9887 1 -0.0551901 -0.00373509 0.0137213 0 0 0 1.12866e-16 -1.40967e-16 -0.210784 1.66017e-18 -2.07352e-18 -0.000290862 1.98006e-15 1.58533e-15 -8.03752e-30 0.001415 
4853 1 -0.0586257 -7.65915e-05 0.0146189 0 0 0 2.03113e-16 3.33266e-16 -0.210784 3.07252e-18 5.04135e-18 -0.000290862 -2.85433e-15 1.73961e-15 3.24678e-29 0.001415 
9744 1 -0.0476714 0.00124731 0.0135055 0 0 0 1.72568e-18 1.9657e-18 -0.210784 8.39735e-20 9.56528e-20 -0.000290862 -6.43556e-17 5.64978e-17 2.5773e-29 0.001415 
3403 1 0.0399954 0.00144601 0.0136405 0 0 0 -3.3342e-16 1.57782e-17 -0.210784 -4.76049e-18 2.25276e-19 -0.000290862 -7.2098e-17 -1.52356e-15 5.20235e-30 0.001415 
3526 1 0.0549212 0.000551996 0.0140034 0 0 0 -3.96832e-16 -1.80479e-16 -0.210784 -6.57728e-18 -2.99135e-18 -0.000290862 -1.29543e-15 2.84835e-15 -1.95726e-28 0.001415 
3843 1 -0.0432547 0.00201405 0.0142259 0 0 0 3.16504e-16 2.15654e-16 -0.210784 4.75583e-18 3.24045e-18 -0.000290862 2.55833e-17 -3.75472e-17 6.68229e-29 0.001415 
6238 1 0.0476834 0.00358837 0.0137614 0 0 0 4.05681e-16 -2.61022e-16 -0.210784 6.97522e-18 -4.48797e-18 -0.000290862 3.70928e-16 5.76498e-16 -5.00884e-29 0.001415 
1469 1 -0.0554428 0.00427207 0.0133844 0 0 0 2.79332e-16 2.6918e-16 -0.210784 5.33189e-18 5.1381e-18 -0.000290862 1.98427e-16 -2.05911e-16 -7.11441e-29 0.001415 
7479 1 0.00708078 0.00479504 0.0136682 0 0 0 -2.12007e-16 2.14989e-16 -0.210784 -3.26102e-18 3.30688e-18 -0.000290862 -2.24886e-15 -2.21768e-15 -5.05398e-29 0.001415 
6444 1 -0.0485008 0.00805 0.0130748 0 0 0 -4.0846e-18 4.976e-18 -0.210784 -1.95261e-19 2.37874e-19 -0.000290862 -1.06306e-15 -8.72625e-16 -3.18722e-29 0.001415 
5546 1 -0.0286421 0.00814112 0.0135318 0 0 0 -4.03129e-16 -2.20397e-16 -0.210784 -6.72523e-18 -3.67678e-18 -0.000290862 -1.7495e-15 3.20002e-15 -1.39075e-28 0.001415 
7897 1 0.0202104 0.0106666 0.0129277 0 0 0 2.31286e-18 1.10245e-17 -0.210784 8.77284e-20 4.18167e-19 -0.000290862 -3.73667e-17 7.83927e-18 1.56105e-29 0.001415 
4366 1 0.0434972 0.010956 0.0138393 0 0 0 -2.39845e-16 2.16357e-16 -0.210784 -3.66197e-18 3.30337e-18 -0.000290862 -1.70112e-15 -1.88579e-15 1.1092e-29 0.001415 
4430 1 -0.0607358 0.0123237 0.0132125 0 0 0 -2.86233e-16 6.11458e-17 -0.210784 -3.76891e-18 8.05125e-19 -0.000290862 -2.12233e-16 -9.93494e-16 1.59678e-29 0.001415 
5821 1 0.071151 0.0126674 0.0129149 0 0 0 -3.60177e-18 3.4619e-18 -0.210784 -9.47792e-20 9.10986e-20 -0.000290862 -1.23634e-16 -1.28629e-16 -7.49517e-31 0.001415 
4344 1 0.0486622 0.0138541 0.0141323 0 0 0 -3.58305e-16 -1.25937e-16 -0.210784 -5.56286e-18 -1.95524e-18 -0.000290862 4.79752e-16 -1.36495e-15 7.59635e-29 0.001415 
5629 1 -0.00809486 0.0186934 0.0140056 0 0 0 3.50102e-16 6.12455e-18 -0.210784 5.52827e-18 9.67095e-20 -0.000290862 7.74532e-17 -4.42751e-15 4.3255e-30 0.001415 
9993 1 -0.0262716 0.020692 0.014101 0 0 0 -2.22765e-16 -2.12806e-16 -0.210784 -2.95676e-18 -2.82458e-18 -0.000290862 -8.14857e-16 8.52989e-16 4.20982e-29 0.001415 
3553 1 0.038325 0.0241144 0.0141032 0 0 0 -5.23876e-17 3.06472e-16 -0.210784 -7.0825e-19 4.14333e-18 -0.000290862 3.01202e-16 5.14868e-17 2.13582e-29 0.001415 
2811 1 0.0616855 0.0236687 0.0137223 0 0 0 6.89648e-17 3.49922e-16 -0.210784 1.07165e-18 5.43744e-18 -0.000290862 -3.83684e-15 7.56189e-16 -2.86019e-29 0.001415 
4218 1 0.00694369 0.0277865 0.0134656 0 0 0 4.45226e-17 -3.2905e-16 -0.210784 6.24942e-19 -4.61873e-18 -0.000290862 -5.88175e-16 -7.95837e-17 3.6768e-30 0.001415 
9956 1 0.047731 0.0274693 0.0139178 0 0 0 6.94211e-17 3.8555e-16 -0.210784 1.09753e-18 6.09544e-18 -0.000290862 -1.62095e-15 2.91863e-16 9.84643e-30 0.001415 
6007 1 0.0347873 0.0296881 0.0136876 0 0 0 1.05586e-16 1.18306e-16 -0.210784 1.50419e-18 1.68541e-18 -0.000290862 -1.88052e-15 1.67833e-15 1.59018e-29 0.001415 
8774 1 0.0137081 0.0323084 0.0143613 0 0 0 -7.03776e-17 1.18443e-16 -0.210784 -1.0574e-18 1.77957e-18 -0.000290862 -1.84524e-15 -1.09642e-15 2.08054e-30 0.001415 
6215 1 -0.0229502 0.0331509 0.0129298 0 0 0 8.6966e-21 4.04353e-20 -0.210784 -2.06458e-20 -9.59938e-20 -0.000290862 8.18355e-16 -1.76007e-16 -6.60268e-30 0.001415 
3967 1 -0.0257836 0.0351781 0.0131413 0 0 0 -1.18169e-16 3.69687e-16 -0.210784 -2.1777e-18 6.81286e-18 -0.000290862 -2.23064e-15 -7.13015e-16 9.71558e-30 0.001415 
7873 1 -0.0162209 0.0354611 0.014011 0 0 0 1.54044e-16 1.8221e-16 -0.210784 2.37162e-18 2.80525e-18 -0.000290862 -3.62082e-15 3.06112e-15 2.61621e-30 0.001415 
6847 1 -0.0500743 0.0395872 0.0141676 0 0 0 -3.83751e-16 1.6552e-16 -0.210784 -6.66411e-18 2.87438e-18 -0.000290862 1.51198e-15 3.50546e-15 -8.17967e-29 0.001415 
487 1 0.0121003 0.044013 0.0146141 0 0 0 2.29098e-16 -1.94183e-16 -0.210784 2.99067e-18 -2.53489e-18 -0.000290862 4.88384e-16 5.76197e-16 2.17526e-29 0.001415 
9747 1 -0.0328934 0.0446643 0.0143843 0 0 0 6.08403e-17 -3.91833e-16 -0.210784 9.10269e-19 -5.86246e-18 -0.000290862 -4.24919e-16 -6.59775e-17 -2.52971e-30 0.001415 
4638 1 0.00148191 0.0455993 0.0127962 0 0 0 3.98419e-18 -2.14531e-18 -0.210784 4.32277e-20 -2.32762e-20 -0.000290862 -8.87543e-17 -1.64831e-16 -2.01855e-30 0.001415 
7348 1 0.0388741 0.0496065 0.0130283 0 0 0 -1.05824e-17 -1.78958e-16 -0.210784 -1.55963e-19 -2.63748e-18 -0.000290862 2.72503e-15 -1.61141e-16 -1.76639e-30 0.001415 
8315 1 0.0261215 0.0546907 0.0145806 0 0 0 -3.84165e-16 1.58824e-16 -0.210784 -6.43822e-18 2.66174e-18 -0.000290862 -7.81752e-16 -1.8909e-15 1.43218e-28 0.001415 
4831 1 0.0293284 0.0560787 0.0131971 0 0 0 3.34855e-16 -1.86143e-16 -0.210784 7.07518e-18 -3.93303e-18 -0.000290862 -6.72353e-16 -1.2095e-15 -6.57204e-29 0.001415 
6909 1 0.00964204 0.0590336 0.0132312 0 0 0 3.84716e-17 -2.31802e-17 -0.210784 1.1569e-18 -6.97061e-19 -0.000290862 1.93491e-15 3.21132e-15 -2.52665e-29 0.001415 
6047 1 -2.16486e-05 0.0672713 0.0139933 0 0 0 -3.86754e-16 -2.32409e-17 -0.210784 -6.05745e-18 -3.64006e-19 -0.000290862 1.14351e-16 -1.90293e-15 -2.63921e-30 0.001415 
7455 1 0.00864732 0.0657086 0.0141396 0 0 0 -1.60947e-17 3.8167e-16 -0.210784 -2.48234e-19 5.88662e-18 -0.000290862 -1.16059e-15 -4.89413e-17 -8.77178e-30 0.001415 
8757 1 0.00829498 0.0765507 0.0135861 0 0 0 0 0 -0.210784 0 0 -0.000290862 0 0 0 0.001415 
3316 1 0.00670592 -0.0734672 0.0159363 0 0 0 -3.95328e-16 1.2651e-16 -0.210784 -6.62121e-18 2.11888e-18 -0.000290862 2.21431e-16 6.91942e-16 -1.76479e-29 0.001415 
2499 1 0.0564696 -0.0568217 0.0160832 0 0 0 3.49673e-18 -8.00025e-18 -0.210784 9.31381e-20 -2.13093e-19 -0.000290862 -1.23538e-16 -5.39959e-17 -1.85025e-31 0.001415 
8902 1 0.00739974 -0.0547957 0.0147078 0 0 0 -4.62741e-17 3.90667e-16 -0.210784 -7.08611e-19 5.98242e-18 -0.000290862 -3.54784e-16 -4.20237e-17 2.20578e-29 0.001415 
4054 1 -0.0359786 -0.0521436 0.0163698 0 0 0 0 0 -0.210784 0 0 -0.000290862 0 0 0 0.001415 
9216 1 -0.0331383 -0.0524344 0.0156739 0 0 0 1.31671e-16 -3.40827e-16 -0.210784 1.89204e-18 -4.8975e-18 -0.000290862 9.13696e-16 3.52987e-16 5.79755e-29 0.001415 
6409 1 -0.0196234 -0.0530749 0.0159564 0 0 0 -4.2438e-16 1.23723e-16 -0.210784 -6.89228e-18 2.00937e-18 -0.000290862 4.93072e-16 1.69127e-15 9.1654e-29 0.001415 
5038 1 0.0374074 -0.0521216 0.0158111 0 0 0 -3.57583e-16 -9.81852e-17 -0.210784 -5.28084e-18 -1.45001e-18 -0.000290862 -1.14956e-16 4.18663e-16 4.36689e-29 0.001415 
8292 1 0.0404079 -0.0427971 0.0159222 0 0 0 -1.64458e-16 3.89796e-16 -0.210784 -2.60086e-18 6.16451e-18 -0.000290862 -3.46826e-15 -1.46329e-15 7.37416e-29 0.001415 
163 1 0.0234703 -0.0405039 0.015647 0 0 0 -1.05442e-17 -1.4074e-16 -0.210784 -1.51011e-19 -2.01563e-18 -0.000290862 -1.825e-15 1.36729e-16 5.85724e-30 0.001415 
8783 1 0.00873888 -0.0402008 0.0161537 0 0 0 -2.82678e-16 -1.28956e-16 -0.210784 -3.85959e-18 -1.76072e-18 -0.000290862 6.88942e-16 -1.51019e-15 -9.34898e-30 0.001415 
1766 1 -0.00794199 -0.0335305 0.0161691 0 0 0 -3.04834e-16 9.53941e-17 -0.210784 -4.29698e-18 1.34469e-18 -0.000290862 -7.94319e-16 -2.53826e-15 -1.75859e-29 0.001415 
7142 1 -0.0430179 -0.0310366 0.0151317 0 0 0 -2.55097e-16 2.53209e-16 -0.210784 -3.86692e-18 3.8383e-18 -0.000290862 1.11249e-15 1.12078e-15 -1.07203e-28 0.001415 
6549 1 -0.00774795 -0.0294214 0.0150998 0 0 0 1.84953e-16 -2.99765e-17 -0.210784 2.87851e-18 -4.66539e-19 -0.000290862 4.42085e-16 2.72763e-15 1.96e-30 0.001415 
1112 1 0.0563793 -0.0257718 0.0158493 0 0 0 -3.60351e-16 -1.84876e-16 -0.210784 -5.82569e-18 -2.98884e-18 -0.000290862 3.74739e-16 -7.30421e-16 -1.33859e-28 0.001415 