ITEM: TIMESTEP
15000
ITEM: NUMBER OF ATOMS
10248
ITEM: BOX BOUNDS ff ff ff
-0.2 0.2
-0.2 0.2
-0.01 0.5
ITEM: ATOMS id type x y z ix iy iz vx vy vz fx fy fz omegax omegay omegaz radius 
5124 1 -0.00943529 -0.0647942 0.00294525 0 0 0 -1.82548e-18 -6.42562e-19 -0.202941 -2.48752e-19 -8.75601e-20 -0.000290872 -3.47495e-18 9.87209e-18 -3.12202e-32 0.001415 
168 1 0.0236553 -0.0380352 0.00188075 0 0 0 2.6543e-19 3.54283e-18 -0.202941 6.51276e-20 8.69294e-19 -0.000290872 2.05843e-17 -1.54218e-18 -1.28288e-32 0.001415 
9891 1 -0.0536741 -0.00562861 0.00282973 0 0 0 1.18473e-18 -1.4797e-18 -0.202941 1.61689e-19 -2.01947e-19 -0.000290872 -4.69798e-18 -3.76144e-18 -1.19221e-32 0.001415 
8778 1 0.0127785 0.033873 0.00335403 0 0 0 -7.10832e-19 1.1963e-18 -0.202941 -9.88808e-20 1.66413e-19 -0.000290872 8.64975e-18 5.1396e-18 1.89569e-33 0.001415 
167 1 0.0236183 -0.0385289 0.0046671 0 0 0 -1.38021e-19 -1.84225e-18 -0.202941 -5.24639e-20 -7.00264e-19 -0.000290872 2.33298e-17 -1.74787e-18 2.94123e-33 0.001415 
5439 1 0.0255064 -0.015295 0.0052226 0 0 0 6.69787e-19 -1.2727e-18 -0.202941 -5.86264e-25 1.11399e-24 -0.000290872 -5.23964e-18 -2.75749e-18 2.22122e-33 0.001415 
4096 1 0.0493328 0.0413049 0.00477461 0 0 0 1.43684e-18 -4.88557e-19 -0.202941 1.41397e-19 -4.80783e-20 -0.000290872 -1.36054e-18 -4.00133e-18 2.15703e-32 0.001415 
5123 1 -0.00890863 -0.0646088 0.00571963 0 0 0 8.89042e-19 3.1294e-19 -0.202941 2.48753e-19 8.75604e-20 -0.000290872 -4.9246e-18 1.39905e-17 -2.84157e-32 0.001415 
8779 1 0.0136066 -0.0379801 0.00634339 0 0 0 1.14888e-19 5.24111e-20 -0.202941 -1.00561e-25 -4.58754e-26 -0.000290872 -4.0786e-19 8.94049e-19 -5.00816e-34 0.001415 
6552 1 -0.00600865 -0.0297033 0.00696015 0 0 0 7.94202e-19 -1.28721e-19 -0.202941 -6.95165e-25 1.1267e-25 -0.000290872 -4.68527e-19 -2.89078e-18 -2.04117e-34 0.001415 
9890 1 -0.0540531 -0.00515523 0.00559399 0 0 0 -2.72655e-19 3.40541e-19 -0.202941 -1.6169e-19 2.01948e-19 -0.000290872 -1.07058e-17 -8.57158e-18 -1.22423e-32 0.001415 
4516 1 0.00201022 -0.00437069 0.00638008 0 0 0 -1.07237e-18 1.28019e-18 -0.202941 9.38645e-25 -1.12055e-24 -0.000290872 4.69504e-18 3.93286e-18 -1.24828e-32 0.001415 
5818 1 0.0744051 0.00953964 0.00588953 0 0 0 2.36876e-19 -2.27677e-19 -0.202941 -2.07338e-25 1.99286e-25 -0.000290872 -2.53211e-19 -2.63441e-19 -1.71802e-34 0.001415 
6447 1 -0.0515136 0.0117203 0.00620246 0 0 0 -1.10181e-18 1.34226e-18 -0.202941 9.64412e-25 -1.17488e-24 -0.000290872 4.42288e-18 3.63057e-18 -1.38207e-32 0.001415 
4347 1 0.0446345 0.0124385 0.00695924 0 0 0 -7.28326e-19 -2.55992e-19 -0.202941 6.37504e-25 2.2407e-25 -0.000290872 -2.68533e-19 7.64005e-19 -3.25122e-35 0.001415 
9996 1 -0.0293411 0.0177597 0.00691389 0 0 0 -1.75267e-18 -1.67432e-18 -0.202941 1.53411e-24 1.46553e-24 -0.000290872 -7.58403e-18 7.93892e-18 1.07777e-32 0.001415 
4221 1 0.00751144 0.0235905 0.00627233 0 0 0 3.08456e-20 -2.27969e-19 -0.202941 -2.69991e-26 1.99541e-25 -0.000290872 4.14677e-19 5.61083e-20 1.08561e-34 0.001415 
3550 1 0.0375782 0.0284832 0.00702739 0 0 0 -1.07719e-18 6.30166e-18 -0.202941 9.42864e-25 -5.51584e-24 -0.000290872 3.71305e-17 6.34698e-18 -1.16612e-32 0.001415 
2814 1 0.0624335 0.0274639 0.00633025 0 0 0 1.42424e-19 7.22646e-19 -0.202941 -1.24663e-25 -6.32532e-25 -0.000290872 1.17372e-18 -2.31324e-19 1.95789e-33 0.001415 
8777 1 0.0130109 0.0334818 0.00614722 0 0 0 5.11037e-19 -8.60057e-19 -0.202941 9.8881e-20 -1.66413e-19 -0.000290872 9.42297e-18 5.59904e-18 1.77474e-33 0.001415 
4641 1 -0.00200478 0.0474767 0.0054518 0 0 0 -2.10655e-18 1.13428e-18 -0.202941 1.84386e-24 -9.92838e-25 -0.000290872 5.34919e-18 9.93431e-18 -2.46561e-33 0.001415 
5122 1 -0.00838197 -0.0644234 0.00849401 0 0 0 8.88964e-19 3.12913e-19 -0.202941 -4.92643e-21 -1.73409e-21 -0.000290872 8.59496e-19 -2.44177e-18 -3.33346e-32 0.001415 
8780 1 0.0123897 -0.0385353 0.00883734 0 0 0 3.05336e-18 1.39292e-18 -0.202941 3.10999e-19 1.41876e-19 -0.000290872 1.59656e-17 -3.49973e-17 -2.18641e-32 0.001415 
166 1 0.0235813 -0.0390227 0.00745345 0 0 0 -7.11824e-20 -9.5011e-19 -0.202941 -1.26638e-20 -1.6903e-19 -0.000290872 4.00916e-18 -3.00367e-19 1.56745e-32 0.001415 
1407 1 0.0135434 -0.0200891 0.00765149 0 0 0 -6.80135e-19 -1.98975e-19 -0.202941 5.95322e-25 1.74163e-25 -0.000290872 -4.80111e-19 1.64111e-18 -6.54939e-34 0.001415 
8589 1 -0.0402517 -0.0187189 0.00775845 0 0 0 5.78223e-20 -7.63622e-19 -0.202941 -5.06119e-26 6.68398e-25 -0.000290872 3.63313e-18 2.75105e-19 -1.53644e-32 0.001415 
5438 1 0.0249608 -0.0142584 0.00779878 0 0 0 -5.96863e-19 1.13413e-18 -0.202941 5.12389e-20 -9.73615e-20 -0.000290872 1.02109e-19 5.37371e-20 -1.44141e-32 0.001415 
2100 1 -0.012979 -0.0106864 0.0078661 0 0 0 7.30453e-19 1.32533e-19 -0.202941 7.20396e-20 1.30708e-20 -0.000290872 5.04592e-19 -2.78106e-18 2.66789e-33 0.001415 
9889 1 -0.0544321 -0.00468185 0.00835825 0 0 0 -9.12071e-19 1.13916e-18 -0.202941 7.98335e-25 -9.97108e-25 -0.000290872 -6.00779e-18 -4.81014e-18 -3.20236e-34 0.001415 
4517 1 0.00302288 -0.0055796 0.00872996 0 0 0 1.07237e-18 -1.28019e-18 -0.202941 -9.38645e-25 1.12055e-24 -0.000290872 4.69504e-18 3.93286e-18 -1.24828e-32 0.001415 
7477 1 0.00556963 0.00632744 0.00859886 0 0 0 0 0 -0.202941 0 0 -0.000290872 0 0 0 0.001415 
6446 1 -0.0505093 0.0104969 0.00854842 0 0 0 6.6576e-19 -8.11052e-19 -0.202941 -4.31728e-20 5.25946e-20 -0.000290872 -1.34939e-18 -1.10766e-18 3.29733e-32 0.001415 
5819 1 0.0733204 0.0105822 0.00828647 0 0 0 -2.36876e-19 2.27677e-19 -0.202941 2.07338e-25 -1.99286e-25 -0.000290872 -2.53211e-19 -2.63441e-19 -1.71802e-34 0.001415 
4368 1 0.0417993 0.0124877 0.00882727 0 0 0 0 0 -0.202941 0 0 -0.000290872 0 0 0 0.001415 
1281 1 -0.00910888 0.0220965 0.00732848 0 0 0 -7.20082e-19 -2.6674e-19 -0.202941 6.30288e-25 2.33477e-25 -0.000290872 -8.9808e-19 2.42443e-18 -9.39221e-34 0.001415 
4220 1 0.00732219 0.0249892 0.00872524 0 0 0 1.44213e-19 -1.06583e-18 -0.202941 1.72733e-20 -1.27661e-19 -0.000290872 -4.2838e-18 -5.79625e-19 6.00055e-34 0.001415 
2813 1 0.0621842 0.0261988 0.00884943 0 0 0 2.31443e-20 1.17432e-19 -0.202941 1.63724e-20 8.30721e-20 -0.000290872 -2.95961e-20 5.83298e-21 -1.03675e-32 0.001415 
8776 1 0.0132433 0.0330907 0.00894041 0 0 0 9.93215e-20 -1.67154e-19 -0.202941 -9.93642e-21 1.67226e-20 -0.000290872 -1.57578e-19 -9.3631e-20 2.88126e-33 0.001415 
3969 1 -0.0266131 0.0377733 0.00834572 0 0 0 -1.78731e-18 5.59153e-18 -0.202941 -1.75303e-19 5.48431e-19 -0.000290872 7.01306e-17 2.24169e-17 -2.97424e-32 0.001415 
7875 1 -0.0151895 0.0366812 0.00874665 0 0 0 4.75235e-19 5.62128e-19 -0.202941 4.67032e-20 5.52426e-20 -0.000290872 5.93497e-18 -5.01754e-18 -1.67077e-33 0.001415 
484 1 0.0153265 0.0412785 0.0074179 0 0 0 2.85396e-18 -2.41901e-18 -0.202941 -2.49807e-24 2.11736e-24 -0.000290872 -1.26426e-17 -1.49157e-17 1.11473e-32 0.001415 
4097 1 0.0483957 0.0416236 0.00742589 0 0 0 2.27895e-20 -7.74893e-21 -0.202941 -1.41399e-19 4.80787e-20 -0.000290872 -2.88137e-18 -8.47406e-18 2.01083e-32 0.001415 
4640 1 -0.000842548 0.0468509 0.0079551 0 0 0 2.10655e-18 -1.13428e-18 -0.202941 -1.84386e-24 9.92838e-25 -0.000290872 5.34919e-18 9.93431e-18 -2.46561e-33 0.001415 
7350 1 0.0388042 0.0484249 0.00765896 0 0 0 -4.44056e-21 -7.50938e-20 -0.202941 3.88682e-27 6.57296e-26 -0.000290872 2.59582e-19 -1.535e-20 3.67296e-36 0.001415 
6406 1 -0.013834 -0.0547628 0.0101457 0 0 0 1.77803e-18 -5.18364e-19 -0.202941 1.74721e-19 -5.09379e-20 -0.000290872 -4.01584e-18 -1.37746e-17 -1.91516e-32 0.001415 
4747 1 -0.048396 -0.0516837 0.0109345 0 0 0 -5.27878e-18 7.71818e-19 -0.202941 -5.18585e-19 7.5823e-20 -0.000290872 6.13585e-18 4.19656e-17 2.6961e-32 0.001415 
8904 1 0.00698378 -0.051284 0.0104539 0 0 0 0 0 -0.202941 0 0 -0.000290872 0 0 0 0.001415 
9219 1 -0.0350531 -0.0474779 0.00921762 0 0 0 0 0 -0.202941 0 0 -0.000290872 0 0 0 0.001415 
8295 1 0.0424827 -0.0477148 0.00948534 0 0 0 0 0 -0.202941 0 0 -0.000290872 0 0 0 0.001415 
165 1 0.0235443 -0.0395164 0.0102398 0 0 0 -5.07814e-20 -6.77807e-19 -0.202941 1.17817e-21 1.57257e-20 -0.000290872 3.50061e-17 -2.62266e-18 1.28639e-31 0.001415 
6551 1 -0.00658842 -0.0296093 0.00972853 0 0 0 -2.56346e-19 4.15476e-20 -0.202941 5.29986e-20 -8.58982e-21 -0.000290872 -3.89026e-19 -2.40026e-18 1.59893e-33 0.001415 
9787 1 -0.0202299 -0.023698 0.0105437 0 0 0 -7.42678e-19 -9.23496e-19 -0.202941 -7.30412e-20 -9.08244e-20 -0.000290872 -7.04799e-18 5.66801e-18 -6.18885e-33 0.001415 
1406 1 0.0148736 -0.0197 0.0101189 0 0 0 6.80135e-19 1.98975e-19 -0.202941 -5.95322e-25 -1.74163e-25 -0.000290872 -4.80111e-19 1.64111e-18 -6.54939e-34 0.001415 
8588 1 -0.0403296 -0.0176897 0.0103935 0 0 0 3.61073e-19 -4.76845e-18 -0.202941 4.35062e-20 -5.74558e-19 -0.000290872 -1.7542e-16 -1.3283e-17 3.48551e-32 0.001415 
8820 1 0.00980992 -0.0172644 0.0107213 0 0 0 0 0 -0.202941 0 0 -0.000290872 0 0 0 0.001415 
3529 1 0.0670132 -0.0166749 0.0110213 0 0 0 0 0 -0.202941 0 0 -0.000290872 0 0 0 0.001415 
4473 1 -0.0215554 -0.0144106 0.010498 0 0 0 0 0 -0.202941 0 0 -0.000290872 0 0 0 0.001415 
5437 1 0.0244153 -0.0132218 0.010375 0 0 0 1.34926e-18 -2.56379e-18 -0.202941 8.86425e-20 -1.68434e-19 -0.000290872 -2.06076e-17 -1.08452e-17 7.67305e-33 0.001415 
2099 1 -0.0146787 -0.0109948 0.0101077 0 0 0 1.78515e-37 -7.38157e-34 -0.202941 -1.56254e-43 -7.07171e-35 -0.000290872 1.00918e-18 -5.56211e-18 6.0524e-34 0.001415 
3528 1 0.0516347 -0.000942708 0.00980995 0 0 0 -1.9897e-18 -9.04913e-19 -0.202941 -1.95465e-19 -8.88973e-20 -0.000290872 -8.03421e-18 1.76654e-17 1.17598e-32 0.001415 
2457 1 0.0227749 0.00368251 0.0101329 0 0 0 0 0 -0.202941 0 0 -0.000290872 0 0 0 0.001415 
6445 1 -0.0495051 0.00927345 0.0108944 0 0 0 3.3905e-21 -4.13042e-21 -0.202941 2.75466e-22 -3.35582e-22 -0.000290872 -5.4773e-18 -4.49609e-18 4.06081e-32 0.001415 
4431 1 -0.0620527 0.012605 0.0108889 0 0 0 -2.55481e-18 5.45766e-19 -0.202941 -2.80815e-19 5.99884e-20 -0.000290872 7.45424e-18 3.48944e-17 1.96002e-31 0.001415 
4346 1 0.0459771 0.0129104 0.00940541 0 0 0 -5.11924e-19 -1.79931e-19 -0.202941 -1.22023e-19 -4.28887e-20 -0.000290872 -2.7119e-18 7.71566e-18 -4.09589e-33 0.001415 
5820 1 0.0722357 0.0116248 0.0106834 0 0 0 9.99462e-19 -9.6065e-19 -0.202941 9.82176e-20 -9.44035e-20 -0.000290872 -8.9548e-18 -9.31659e-18 2.14924e-33 0.001415 
9995 1 -0.0283179 0.0187371 0.00936475 0 0 0 1.75267e-18 1.67432e-18 -0.202941 -1.53411e-24 -1.46553e-24 -0.000290872 -7.58403e-18 7.93892e-18 1.07777e-32 0.001415 
1280 1 -0.00826091 0.0224106 0.0100101 0 0 0 7.20082e-19 2.6674e-19 -0.202941 -6.30288e-25 -2.33477e-25 -0.000290872 -8.9808e-19 2.42443e-18 -9.39221e-34 0.001415 
3551 1 0.0378271 0.027027 0.00944114 0 0 0 1.07719e-18 -6.30166e-18 -0.202941 -9.42864e-25 5.51584e-24 -0.000290872 3.71305e-17 6.34698e-18 -1.16612e-32 0.001415 
3968 1 -0.0261983 0.0364757 0.0108263 0 0 0 1.78731e-18 -5.59153e-18 -0.202941 1.75303e-19 -5.48431e-19 -0.000290872 7.01306e-17 2.24169e-17 -2.97424e-32 0.001415 
9745 1 -0.0323504 0.0411674 0.0101326 0 0 0 0 0 -0.202941 0 0 -0.000290872 0 0 0 0.001415 
485 1 0.0142511 0.04219 0.00987179 0 0 0 -2.85396e-18 2.41901e-18 -0.202941 2.49807e-24 -2.11736e-24 -0.000290872 -1.26426e-17 -1.49157e-17 1.11473e-32 0.001415 
4098 1 0.0474587 0.0419422 0.0100772 0 0 0 -1.05212e-18 3.57744e-19 -0.202941 4.02997e-20 -1.37028e-20 -0.000290872 5.50655e-19 1.61947e-18 -1.67674e-32 0.001415 
4639 1 0.000319678 0.0462251 0.0104584 0 0 0 -1.77333e-18 9.54862e-19 -0.202941 -1.74234e-19 9.38175e-20 -0.000290872 9.83676e-18 1.82684e-17 -9.00907e-33 0.001415 
7349 1 0.0388392 0.0490157 0.0104264 0 0 0 -4.14281e-20 -7.00586e-19 -0.202941 -5.51437e-21 -9.32531e-20 -0.000290872 -7.01673e-17 4.14923e-18 -1.1427e-32 0.001415 
3318 1 0.0108764 -0.0748018 0.0125155 0 0 0 0 0 -0.202941 0 0 -0.000290872 0 0 0 0.001415 
5121 1 -0.0078553 -0.064238 0.0112684 0 0 0 -4.88109e-19 -1.71813e-19 -0.202941 -6.20055e-20 -2.18258e-20 -0.000290872 -1.88032e-17 5.34186e-17 3.32534e-31 0.001415 
6407 1 -0.0157638 -0.0542001 0.0121378 0 0 0 -1.77803e-18 5.18364e-19 -0.202941 -1.74721e-19 5.09379e-20 -0.000290872 -4.01584e-18 -1.37746e-17 -1.91516e-32 0.001415 
4748 1 -0.0463698 -0.05198 0.0128879 0 0 0 3.84517e-18 -5.62207e-19 -0.202941 3.5154e-19 -5.13993e-20 -0.000290872 -9.46081e-18 -6.47063e-17 2.91239e-31 0.001415 
8903 1 0.00719176 -0.0530399 0.0126636 0 0 0 -1.01562e-19 8.57433e-19 -0.202941 -1.36328e-20 1.15095e-19 -0.000290872 -6.99333e-17 -8.28352e-18 1.10396e-31 0.001415 
8421 1 -0.0125515 -0.050364 0.012341 0 0 0 0 0 -0.202941 0 0 -0.000290872 0 0 0 0.001415 
5040 1 0.0412118 -0.051077 0.0119181 0 0 0 0 0 -0.202941 0 0 -0.000290872 0 0 0 0.001415 
9218 1 -0.0344149 -0.0491301 0.0114249 0 0 0 -3.09346e-19 8.00733e-19 -0.202941 -4.10012e-20 1.0613e-19 -0.000290872 -5.74549e-17 -2.21965e-17 5.13642e-33 0.001415 
8294 1 0.0417911 -0.0460756 0.0116861 0 0 0 0 0 -0.202941 0 0 -0.000290872 0 0 0 0.001415 
8781 1 0.0111727 -0.0390904 0.0113313 0 0 0 -3.16825e-18 -1.44534e-18 -0.202941 -3.10999e-19 -1.41876e-19 -0.000290872 1.63734e-17 -3.58913e-17 -2.13633e-32 0.001415 
7141 1 -0.0440609 -0.0300013 0.0128786 0 0 0 0 0 -0.202941 0 0 -0.000290872 0 0 0 0.001415 
6550 1 -0.00716818 -0.0295154 0.0124969 0 0 0 -5.37856e-19 8.71738e-20 -0.202941 -5.29979e-20 8.58971e-21 -0.000290872 7.95011e-20 4.90516e-19 1.80305e-33 0.001415 
9788 1 -0.0191042 -0.0222982 0.0127306 0 0 0 5.90328e-19 7.34054e-19 -0.202941 4.13185e-20 5.13782e-20 -0.000290872 5.09668e-17 -4.09876e-17 -1.19947e-31 0.001415 
1405 1 0.0162037 -0.0193109 0.0125863 0 0 0 -2.1402e-18 -6.26119e-19 -0.202941 -2.42733e-19 -7.1012e-20 -0.000290872 -3.36374e-18 1.14979e-17 9.3166e-32 0.001415 
8819 1 0.00974619 -0.0192248 0.0127614 0 0 0 1.01268e-19 3.11469e-18 -0.202941 1.11361e-20 3.42513e-19 -0.000290872 -3.76952e-17 1.22559e-18 -2.66714e-31 0.001415 
4472 1 -0.0211077 -0.0159411 0.0128359 0 0 0 -1.37798e-18 4.71032e-18 -0.202941 -1.45292e-19 4.96651e-19 -0.000290872 -3.36632e-17 -9.84798e-18 1.93257e-31 0.001415 
4389 1 -0.00210167 -0.0164576 0.011528 0 0 0 7.96304e-20 -3.88189e-20 -0.202941 1.75395e-20 -8.55032e-21 -0.000290872 -2.02839e-17 -4.16089e-17 -6.33678e-32 0.001415 
2098 1 -0.0163785 -0.0113032 0.0123493 0 0 0 -7.30453e-19 -1.32533e-19 -0.202941 -7.20396e-20 -1.30708e-20 -0.000290872 5.04592e-19 -2.78106e-18 -2.06265e-33 0.001415 
4518 1 0.00403554 -0.00678852 0.0110798 0 0 0 -1.60617e-18 1.91745e-18 -0.202941 -1.76344e-19 2.1052e-19 -0.000290872 -3.06848e-17 -2.57035e-17 -5.72084e-31 0.001415 
9888 1 -0.0548111 -0.00420847 0.0111225 0 0 0 1.93929e-19 -2.42214e-19 -0.202941 2.80402e-20 -3.50218e-20 -0.000290872 -4.62112e-17 -3.6999e-17 -1.57279e-31 0.001415 
3527 1 0.053278 -0.000195356 0.0119894 0 0 0 1.9897e-18 9.04913e-19 -0.202941 1.95465e-19 8.88973e-20 -0.000290872 -8.03421e-18 1.76654e-17 1.17598e-32 0.001415 
4852 1 -0.0576017 0.00160357 0.0127504 0 0 0 4.93755e-19 8.10148e-19 -0.202941 6.45878e-20 1.05975e-19 -0.000290872 -4.35415e-17 2.65369e-17 4.26683e-31 0.001415 
2456 1 0.0231999 0.00341526 0.012918 0 0 0 -2.72932e-17 1.71639e-17 -0.202941 -3.89057e-18 2.44667e-18 -0.000290872 -2.0643e-17 -3.28254e-17 -1.76107e-31 0.001415 
1470 1 -0.0541433 0.00552442 0.0113701 0 0 0 1.66903e-18 1.60836e-18 -0.202941 1.91737e-19 1.84768e-19 -0.000290872 -5.3033e-17 5.50333e-17 1.90318e-31 0.001415 
7478 1 0.0063252 0.00556124 0.0112163 0 0 0 0 0 -0.202941 0 0 -0.000290872 0 0 0 0.001415 
5545 1 -0.0302182 0.00727945 0.0115104 0 0 0 0 0 -0.202941 0 0 -0.000290872 0 0 0 0.001415 
4367 1 0.0426483 0.0117219 0.011416 0 0 0 -4.30352e-19 3.88209e-19 -0.202941 -6.12284e-20 5.52325e-20 -0.000290872 4.95881e-17 5.49713e-17 1.9762e-31 0.001415 
4345 1 0.0473197 0.0133822 0.0118516 0 0 0 1.24025e-18 4.35923e-19 -0.202941 1.22022e-19 4.28885e-20 -0.000290872 -2.44337e-18 6.95166e-18 -4.06337e-33 0.001415 
9994 1 -0.0272948 0.0197145 0.0118156 0 0 0 -1.63504e-18 -1.56195e-18 -0.202941 -1.82808e-19 -1.74636e-19 -0.000290872 4.558e-17 -4.77129e-17 5.37086e-31 0.001415 
1279 1 -0.00741294 0.0227247 0.0126918 0 0 0 -1.97941e-18 -7.33231e-19 -0.202941 -2.20996e-19 -8.18636e-20 -0.000290872 -4.78152e-17 1.2908e-16 5.45634e-32 0.001415 
2812 1 0.0619348 0.0249338 0.0113686 0 0 0 2.00605e-20 1.01785e-19 -0.202941 7.78785e-21 3.95149e-20 -0.000290872 9.23097e-17 -1.8193e-17 -4.04997e-31 0.001415 
4219 1 0.00713294 0.0263879 0.0111781 0 0 0 1.36814e-20 -1.01114e-19 -0.202941 5.39105e-21 -3.98433e-20 -0.000290872 -1.04297e-17 -1.41121e-18 -1.08949e-32 0.001415 
3552 1 0.038076 0.0255707 0.0118549 0 0 0 -3.09763e-20 1.81214e-19 -0.202941 -6.18188e-21 3.61646e-20 -0.000290872 -4.76408e-17 -8.14359e-18 2.00348e-31 0.001415 
9955 1 0.0480973 0.0295036 0.0121503 0 0 0 0 0 -0.202941 0 0 -0.000290872 0 0 0 0.001415 
6216 1 -0.023401 0.0310553 0.0112476 0 0 0 -2.97558e-19 -1.38351e-18 -0.202941 -2.92815e-20 -1.36146e-19 -0.000290872 -7.86846e-18 1.6923e-18 -1.32479e-32 0.001415 
8775 1 0.0134757 0.0326995 0.0117336 0 0 0 6.62558e-20 -1.11506e-19 -0.202941 2.32002e-21 -3.9045e-21 -0.000290872 2.56706e-17 1.52532e-17 -4.3641e-32 0.001415 
7874 1 -0.0157052 0.0360712 0.0114616 0 0 0 -4.75235e-19 -5.62128e-19 -0.202941 -4.67032e-20 -5.52426e-20 -0.000290872 5.93497e-18 -5.01754e-18 -1.67077e-33 0.001415 
4099 1 0.0465216 0.0422608 0.0127285 0 0 0 -4.07508e-19 1.38562e-19 -0.202941 -4.02984e-20 1.37024e-20 -0.000290872 2.07148e-18 6.09219e-18 -1.53053e-32 0.001415 
9746 1 -0.0326219 0.0429159 0.0123412 0 0 0 1.96733e-19 -1.26703e-18 -0.202941 2.45147e-20 -1.57883e-19 -0.000290872 7.36746e-17 1.14395e-17 -2.58363e-32 0.001415 
486 1 0.0131757 0.0431015 0.0123257 0 0 0 2.88425e-18 -2.44469e-18 -0.202941 3.08507e-19 -2.6149e-19 -0.000290872 3.49637e-17 4.12503e-17 6.87623e-31 0.001415 
8316 1 0.0241447 0.055508 0.0128933 0 0 0 0 0 -0.202941 0 0 -0.000290872 0 0 0 0.001415 
6048 1 -0.0014895 0.0671831 0.0117408 0 0 0 -1.08214e-18 -6.50282e-20 -0.202941 -1.39282e-19 -8.36976e-21 -0.000290872 5.08928e-19 -8.46912e-18 -4.21057e-32 0.001415 
3317 1 0.00879117 -0.0741345 0.0143086 0 0 0 7.32414e-17 -2.34383e-17 -0.202941 1.0485e-17 -3.35534e-18 -0.000290872 -1.1489e-16 -3.59016e-16 -3.66212e-31 0.001415 
4537 1 0.0348065 -0.0668743 0.0142866 0 0 0 2.39076e-17 -4.65585e-17 -0.202941 3.39559e-18 -6.61269e-18 -0.000290872 1.30829e-16 6.71802e-17 7.27188e-32 0.001415 
5120 1 -0.00732864 -0.0640527 0.0140428 0 0 0 -2.91664e-17 -1.02665e-17 -0.202941 -4.1079e-18 -1.44597e-18 -0.000290872 1.50466e-17 -4.27463e-17 3.65814e-31 0.001415 
4749 1 -0.0443437 -0.0522762 0.0148413 0 0 0 -5.31651e-17 7.77334e-18 -0.202941 -7.23826e-18 1.05832e-18 -0.000290872 4.24006e-17 2.89995e-16 3.89746e-31 0.001415 
6408 1 -0.0176936 -0.0536375 0.0141298 0 0 0 7.86336e-17 -2.29248e-17 -0.202941 1.13364e-17 -3.305e-18 -0.000290872 -1.39736e-16 -4.79304e-16 -3.56191e-31 0.001415 
9217 1 -0.0337766 -0.0507822 0.0136321 0 0 0 -2.479e-17 6.41681e-17 -0.202941 -3.5028e-18 9.06688e-18 -0.000290872 3.57813e-16 1.38233e-16 1.03064e-30 0.001415 
5039 1 0.0393096 -0.0515993 0.0139473 0 0 0 7.10736e-17 1.95154e-17 -0.202941 1.0167e-17 2.79165e-18 -0.000290872 1.03926e-16 -3.7849e-16 -5.21221e-32 0.001415 
8420 1 -0.0130316 -0.0490822 0.014818 0 0 0 2.36194e-17 -6.30685e-17 -0.202941 3.35547e-18 -8.95978e-18 -0.000290872 -1.24672e-16 -4.66901e-17 -7.16782e-31 0.001415 
8293 1 0.0410995 -0.0444363 0.0138869 0 0 0 3.11498e-17 -7.38307e-17 -0.202941 4.44378e-18 -1.05326e-17 -0.000290872 -5.25162e-16 -2.2157e-16 -1.16658e-31 0.001415 
8782 1 0.00995582 -0.0396456 0.0138252 0 0 0 5.30431e-17 2.4198e-17 -0.202941 7.41096e-18 3.38083e-18 -0.000290872 1.19504e-16 -2.61959e-16 4.92891e-31 0.001415 
164 1 0.0235073 -0.0400101 0.0130262 0 0 0 1.95607e-18 2.61087e-17 -0.202941 2.70054e-19 3.60456e-18 -0.000290872 -7.80681e-17 5.84887e-18 1.41632e-31 0.001415 
1765 1 -0.00582286 -0.0341936 0.0145801 0 0 0 6.04529e-17 -1.8918e-17 -0.202941 8.5539e-18 -2.67684e-18 -0.000290872 -1.19522e-16 -3.81936e-16 -5.34195e-31 0.001415 
2898 1 -0.0015393 -0.0260351 0.0148523 0 0 0 4.44934e-17 -8.78342e-18 -0.202941 6.34008e-18 -1.25159e-18 -0.000290872 1.79038e-17 9.06937e-17 -1.27749e-31 0.001415 
1113 1 0.057839 -0.0250229 0.0137088 0 0 0 6.65106e-17 3.41229e-17 -0.202941 9.54122e-18 4.89508e-18 -0.000290872 1.58418e-16 -3.0878e-16 9.82493e-32 0.001415 
2604 1 -0.0264828 -0.0239558 0.0145768 0 0 0 6.22371e-17 -2.70977e-18 -0.202941 8.92292e-18 -3.88499e-19 -0.000290872 -1.69976e-17 -3.90396e-16 1.02852e-31 0.001415 
8818 1 0.00968245 -0.0211851 0.0148015 0 0 0 2.17931e-18 6.70287e-17 -0.202941 3.09504e-19 9.51936e-18 -0.000290872 3.29716e-16 -1.07201e-17 -2.05985e-31 0.001415 
3530 1 0.0663652 -0.0174708 0.0136586 0 0 0 4.25567e-17 5.22681e-17 -0.202941 6.18079e-18 7.59123e-18 -0.000290872 -7.17008e-17 5.83789e-17 6.69485e-31 0.001415 
8587 1 -0.0404076 -0.0166605 0.0130286 0 0 0 3.35702e-18 -4.43339e-17 -0.202941 4.83787e-19 -6.38906e-18 -0.000290872 -2.80605e-17 -2.12477e-18 6.52684e-32 0.001415 
4388 1 -0.00265555 -0.0161876 0.0142901 0 0 0 2.98194e-17 -1.45366e-17 -0.202941 4.17634e-18 -2.03592e-18 -0.000290872 1.68785e-17 3.46234e-17 -4.43149e-32 0.001415 
2097 1 -0.0180782 -0.0116116 0.0145908 0 0 0 7.23553e-17 1.31281e-17 -0.202941 1.03553e-17 1.87885e-18 -0.000290872 9.40271e-17 -5.18229e-16 -6.58174e-31 0.001415 
5436 1 0.0238697 -0.0121851 0.0129511 0 0 0 -8.67683e-19 1.64873e-18 -0.202941 -7.14578e-20 1.3578e-19 -0.000290872 -9.81715e-17 -5.16652e-17 -5.02951e-32 0.001415 
4519 1 0.0050482 -0.00799743 0.0134297 0 0 0 -3.38529e-17 4.04136e-17 -0.202941 -4.60296e-18 5.49501e-18 -0.000290872 2.32817e-16 1.95022e-16 -3.372e-31 0.001415 
9887 1 -0.0551901 -0.00373509 0.0138868 0 0 0 2.09555e-17 -2.6173e-17 -0.202941 2.9767e-18 -3.71785e-18 -0.000290872 4.80139e-17 3.84424e-17 -2.54654e-31 0.001415 
4853 1 -0.0586257 -7.65915e-05 0.0147844 0 0 0 3.75515e-17 6.16141e-17 -0.202941 5.40422e-18 8.86719e-18 -0.000290872 3.16631e-16 -1.92975e-16 8.50346e-32 0.001415 
9744 1 -0.0476714 0.00124731 0.013671 0 0 0 1.59391e-19 1.8156e-19 -0.202941 2.56056e-20 2.91669e-20 -0.000290872 -3.6172e-17 3.17554e-17 1.44472e-31 0.001415 
3403 1 0.0399954 0.00144601 0.0138059 0 0 0 -6.12815e-17 2.89997e-18 -0.202941 -8.60176e-18 4.07054e-19 -0.000290872 1.61163e-17 3.40565e-16 -2.14694e-32 0.001415 
3526 1 0.0549212 0.000551996 0.0141689 0 0 0 -7.34294e-17 -3.33957e-17 -0.202941 -1.03716e-17 -4.717e-18 -0.000290872 -2.3856e-16 5.24539e-16 -2.0431e-30 0.001415 
3843 1 -0.0432547 0.00201405 0.0143914 0 0 0 5.82568e-17 3.9694e-17 -0.202941 8.38456e-18 5.71293e-18 -0.000290872 2.63272e-16 -3.8639e-16 -8.47797e-31 0.001415 
6238 1 0.0476834 0.00358837 0.0139269 0 0 0 7.55171e-17 -4.8589e-17 -0.202941 1.09019e-17 -7.01447e-18 -0.000290872 -1.00989e-16 -1.56958e-16 3.69169e-31 0.001415 
1469 1 -0.0554428 0.00427207 0.0135499 0 0 0 5.39767e-17 5.20148e-17 -0.202941 7.7268e-18 7.44596e-18 -0.000290872 3.08738e-16 -3.20383e-16 -3.08876e-31 0.001415 
7479 1 0.00708078 0.00479504 0.0138337 0 0 0 -3.90919e-17 3.96416e-17 -0.202941 -5.54352e-18 5.62147e-18 -0.000290872 -4.54924e-17 -4.48615e-17 -7.92364e-31 0.001415 
6444 1 -0.0485008 0.00805 0.0132403 0 0 0 -2.46117e-19 2.99828e-19 -0.202941 -7.67493e-20 9.34986e-20 -0.000290872 -7.10383e-17 -5.83125e-17 1.07382e-31 0.001415 
5546 1 -0.0286421 0.00814112 0.0136973 0 0 0 -7.47652e-17 -4.08752e-17 -0.202941 -1.08407e-17 -5.92675e-18 -0.000290872 -3.04372e-16 5.56729e-16 -2.13173e-31 0.001415 
7897 1 0.0202104 0.0106666 0.0130932 0 0 0 4.21625e-19 2.00972e-18 -0.202941 4.85054e-20 2.31206e-19 -0.000290872 -3.175e-17 6.66093e-18 6.55943e-32 0.001415 
4366 1 0.0434972 0.010956 0.0140048 0 0 0 -4.45279e-17 4.01674e-17 -0.202941 -6.36825e-18 5.74463e-18 -0.000290872 7.67985e-18 8.51357e-18 8.27824e-32 0.001415 
4430 1 -0.0607358 0.0123237 0.013378 0 0 0 -5.24736e-17 1.12095e-17 -0.202941 -7.31246e-18 1.56211e-18 -0.000290872 5.4636e-17 2.5576e-16 5.14156e-32 0.001415 
5821 1 0.071151 0.0126674 0.0130804 0 0 0 -9.99462e-19 9.6065e-19 -0.202941 -9.82176e-20 9.44035e-20 -0.000290872 -8.9548e-18 -9.31659e-18 2.14924e-33 0.001415 
4344 1 0.0486622 0.0138541 0.0142978 0 0 0 -6.62481e-17 -2.32849e-17 -0.202941 -9.38349e-18 -3.29811e-18 -0.000290872 -4.40534e-17 1.25337e-16 4.67688e-31 0.001415 
5629 1 -0.00809486 0.0186934 0.0141711 0 0 0 6.4554e-17 1.12928e-18 -0.202941 9.224e-18 1.61361e-19 -0.000290872 7.95444e-18 -4.54705e-16 -5.25637e-32 0.001415 
9993 1 -0.0262716 0.020692 0.0142664 0 0 0 -4.1013e-17 -3.91796e-17 -0.202941 -5.71535e-18 -5.45986e-18 -0.000290872 -2.60351e-16 2.72534e-16 -2.39723e-31 0.001415 
3553 1 0.038325 0.0241144 0.0142687 0 0 0 -9.73027e-18 5.6923e-17 -0.202941 -1.34872e-18 7.89011e-18 -0.000290872 3.74395e-16 6.3998e-17 3.88459e-31 0.001415 
2811 1 0.0616855 0.0236687 0.0138878 0 0 0 1.27928e-17 6.49097e-17 -0.202941 1.80516e-18 9.15923e-18 -0.000290872 -9.21004e-18 1.81517e-18 -5.18357e-31 0.001415 
4218 1 0.00694369 0.0277865 0.0136311 0 0 0 8.23273e-18 -6.08452e-17 -0.202941 1.15158e-18 -8.51093e-18 -0.000290872 -2.66108e-16 -3.60061e-17 -6.38447e-32 0.001415 
9956 1 0.047731 0.0274693 0.0140833 0 0 0 1.27836e-17 7.09973e-17 -0.202941 1.80381e-18 1.0018e-17 -0.000290872 3.78585e-16 -6.8167e-17 -1.6095e-31 0.001415 
6007 1 0.0347873 0.0296881 0.0138531 0 0 0 1.94676e-17 2.1813e-17 -0.202941 2.71485e-18 3.04192e-18 -0.000290872 -6.92934e-17 6.18428e-17 -7.74703e-33 0.001415 
8774 1 0.0137081 0.0323084 0.0145268 0 0 0 -1.30595e-17 2.19787e-17 -0.202941 -1.83453e-18 3.08744e-18 -0.000290872 -4.51889e-17 -2.68508e-17 7.05802e-32 0.001415 
6215 1 -0.0229502 0.0331509 0.0130953 0 0 0 1.73381e-19 8.06145e-19 -0.202941 1.16604e-20 5.42157e-20 -0.000290872 8.87339e-17 -1.90844e-17 -1.45479e-31 0.001415 
3967 1 -0.0257836 0.0351781 0.0133068 0 0 0 -2.18366e-17 6.8315e-17 -0.202941 -3.14137e-18 9.82767e-18 -0.000290872 1.83032e-16 5.85052e-17 3.8213e-31 0.001415 
7873 1 -0.0162209 0.0354611 0.0141765 0 0 0 2.84243e-17 3.36215e-17 -0.202941 4.02725e-18 4.76361e-18 -0.000290872 -1.37259e-16 1.16042e-16 1.00852e-32 0.001415 
6847 1 -0.0500743 0.0395872 0.0143331 0 0 0 -7.11556e-17 3.0691e-17 -0.202941 -1.0302e-17 4.44347e-18 -0.000290872 2.12713e-16 4.93166e-16 7.23587e-31 0.001415 
487 1 0.0121003 0.044013 0.0147796 0 0 0 4.17422e-17 -3.53806e-17 -0.202941 5.89318e-18 -4.99505e-18 -0.000290872 -2.38527e-16 -2.81415e-16 -2.3262e-31 0.001415 
9747 1 -0.0328934 0.0446643 0.0145498 0 0 0 1.1264e-17 -7.25442e-17 -0.202941 1.62991e-18 -1.04972e-17 -0.000290872 -4.34268e-16 -6.74291e-17 -2.00987e-31 0.001415 
4638 1 0.00148191 0.0455993 0.0129617 0 0 0 1.61928e-18 -8.7191e-19 -0.202941 1.42596e-19 -7.67816e-20 -0.000290872 7.98805e-18 1.48351e-17 -2.72538e-32 0.001415 
7348 1 0.0388741 0.0496065 0.0131938 0 0 0 -1.95802e-18 -3.31118e-17 -0.202941 -2.79909e-19 -4.73352e-18 -0.000290872 3.97008e-17 -2.34764e-18 -8.14601e-33 0.001415 
8315 1 0.0261215 0.0546907 0.0147461 0 0 0 -7.10303e-17 2.93659e-17 -0.202941 -1.0144e-17 4.1938e-18 -0.000290872 1.52563e-16 3.6902e-16 1.57697e-30 0.001415 
4831 1 0.0293284 0.0560787 0.0133626 0 0 0 6.16187e-17 -3.42533e-17 -0.202941 8.80685e-18 -4.89566e-18 -0.000290872 -1.85581e-16 -3.33844e-16 5.31803e-31 0.001415 
6909 1 0.00964204 0.0590336 0.0133967 0 0 0 9.50628e-18 -5.72779e-18 -0.202941 9.70534e-19 -5.84773e-19 -0.000290872 3.64216e-17 6.04481e-17 -2.17757e-31 0.001415 
6047 1 -2.16486e-05 0.0672713 0.0141588 0 0 0 -7.18276e-17 -4.31628e-18 -0.202941 -1.02922e-17 -6.18481e-19 -0.000290872 -7.16047e-18 1.19158e-16 7.0976e-32 0.001415 
7455 1 0.00864732 0.0657086 0.0143051 0 0 0 -2.9656e-18 7.03263e-17 -0.202941 -4.18372e-19 9.92126e-18 -0.000290872 4.33879e-16 1.82964e-17 -3.08911e-32 0.001415 
8757 1 0.00829498 0.0765507 0.0137516 0 0 0 0 0 -0.202941 0 0 -0.000290872 0 0 0 0.001415 
3316 1 0.00670592 -0.0734672 0.0161018 0 0 0 -7.32414e-17 2.34383e-17 -0.202941 -1.0485e-17 3.35534e-18 -0.000290872 -1.1489e-16 -3.59016e-16 -3.66212e-31 0.001415 
2499 1 0.0564696 -0.0568217 0.0162487 0 0 0 9.62235e-19 -2.20152e-18 -0.202941 9.48467e-20 -2.17002e-19 -0.000290872 -9.0181e-18 -3.94161e-18 -8.54008e-33 0.001415 
8902 1 0.00739974 -0.0547957 0.0148732 0 0 0 -8.57202e-18 7.23689e-17 -0.202941 -1.20847e-18 1.02024e-17 -0.000290872 3.99267e-16 4.72928e-17 7.91059e-32 0.001415 
4054 1 -0.0359786 -0.0521436 0.0165353 0 0 0 0 0 -0.202941 0 0 -0.000290872 0 0 0 0.001415 
9216 1 -0.0331383 -0.0524344 0.0158394 0 0 0 2.42798e-17 -6.28475e-17 -0.202941 3.45011e-18 -8.9305e-18 -0.000290872 2.73216e-16 1.05551e-16 9.05975e-31 0.001415 
6409 1 -0.0196234 -0.0530749 0.0161219 0 0 0 -7.86336e-17 2.29248e-17 -0.202941 -1.13364e-17 3.305e-18 -0.000290872 -1.39736e-16 -4.79304e-16 -3.56191e-31 0.001415 
5038 1 0.0374074 -0.0521216 0.0159766 0 0 0 -6.44247e-17 -1.76897e-17 -0.202941 -9.47308e-18 -2.60112e-18 -0.000290872 7.28628e-17 -2.65361e-16 7.06129e-31 0.001415 
8292 1 0.0404079 -0.0427971 0.0160877 0 0 0 -3.04599e-17 7.21955e-17 -0.202941 -4.36084e-18 1.0336e-17 -0.000290872 -3.72913e-16 -1.57335e-16 -3.11955e-31 0.001415 
163 1 0.0234703 -0.0405039 0.0158125 0 0 0 -1.95629e-18 -2.61116e-17 -0.202941 -2.70079e-19 -3.6049e-18 -0.000290872 -1.16668e-16 8.74076e-18 1.37475e-31 0.001415 
8783 1 0.00873888 -0.0402008 0.0163192 0 0 0 -5.24467e-17 -2.39259e-17 -0.202941 -7.32974e-18 -3.34378e-18 -0.000290872 6.99975e-17 -1.53438e-16 5.00123e-31 0.001415 
1766 1 -0.00794199 -0.0335305 0.0163346 0 0 0 -5.48212e-17 1.71557e-17 -0.202941 -7.96714e-18 2.49322e-18 -0.000290872 -9.47695e-17 -3.02838e-16 4.54995e-31 0.001415 
7142 1 -0.0430179 -0.0310366 0.0152972 0 0 0 -4.716e-17 4.68109e-17 -0.202941 -6.58188e-18 6.53317e-18 -0.000290872 2.28053e-16 2.29753e-16 9.06878e-31 0.001415 
6549 1 -0.00774795 -0.0294214 0.0152653 0 0 0 3.41498e-17 -5.53487e-18 -0.202941 4.87766e-18 -7.90553e-19 -0.000290872 1.52847e-17 9.43055e-17 1.35608e-32 0.001415 
1112 1 0.0563793 -0.0257718 0.0160148 0 0 0 -6.65106e-17 -3.41229e-17 -0.202941 -9.54122e-18 -4.89508e-18 -0.000290872 1.58418e-16 -3.0878e-16 9.82493e-32 0.001415 