ITEM: TIMESTEP
215000
ITEM: NUMBER OF ATOMS
10248
ITEM: BOX BOUNDS ff ff ff
-0.2 0.2
-0.2 0.2
-0.01 0.5
ITEM: ATOMS id type x y z ix iy iz vx vy vz fx fy fz omegax omegay omegaz radius 
168 1 0.023706 -0.0373575 0.00142349 0 0 0 0.0326144 0.435322 0.000902008 -4.32838e-08 -5.77732e-07 -0.000291051 -307.734 23.0555 2.92766e-12 0.001415 
5124 1 -0.00943529 -0.0647942 0.00205506 0 0 0 -1.59533e-17 -5.61553e-18 -0.242154 -2.06832e-18 -7.28042e-19 -0.000290819 2.73858e-16 -7.78012e-16 1.39037e-32 0.001415 
9891 1 -0.0536741 -0.00562861 0.00193953 0 0 0 1.07417e-17 -1.34162e-17 -0.242154 1.45391e-18 -1.8159e-18 -0.000290819 7.49456e-16 6.00053e-16 -5.42458e-31 0.001415 
8778 1 0.0127785 0.033873 0.00246384 0 0 0 -6.53841e-18 1.10039e-17 -0.242154 -8.91587e-19 1.50051e-18 -0.000290819 -4.95337e-16 -2.94325e-16 4.80061e-31 0.001415 
5123 1 -0.00890863 -0.0646088 0.00482944 0 0 0 1.5017e-17 5.28595e-18 -0.242154 2.06832e-18 7.28042e-19 -0.000290819 2.72408e-16 -7.73894e-16 1.67077e-32 0.001415 
167 1 0.0236532 -0.0380628 0.00421004 0 0 0 0.0225717 0.301277 0.00810724 -2.40919e-08 -3.21567e-07 -0.000291058 400.659 -30.0175 1.61873e-11 0.001415 
5439 1 0.0255064 -0.015295 0.00433241 0 0 0 6.69704e-19 -1.27254e-18 -0.242154 -6.36987e-25 1.21037e-24 -0.000290819 -5.2385e-18 -2.75689e-18 2.22074e-33 0.001415 
9890 1 -0.0540531 -0.00515523 0.0047038 0 0 0 -9.8297e-18 1.22771e-17 -0.242154 -1.45391e-18 1.81591e-18 -0.000290819 7.4345e-16 5.95244e-16 -5.42778e-31 0.001415 
5818 1 0.0744051 0.00953964 0.00499933 0 0 0 2.36847e-19 -2.27649e-19 -0.242154 -2.25276e-25 2.16528e-25 -0.000290819 -2.53156e-19 -2.63384e-19 -1.71765e-34 0.001415 
4096 1 0.0493328 0.0413049 0.00388442 0 0 0 7.52899e-17 -2.56002e-17 -0.242154 2.24438e-17 -7.63137e-18 -0.000290819 -1.26317e-15 -3.71497e-15 3.22041e-30 0.001415 
4641 1 -0.00200478 0.0474767 0.00456161 0 0 0 -2.10629e-18 1.13414e-18 -0.242154 2.00339e-24 -1.07874e-24 -0.000290819 5.34803e-18 9.93216e-18 -2.46507e-33 0.001415 
166 1 0.0235633 -0.0392622 0.00687274 0 0 0 -0.0114051 -0.152229 -0.0677247 9.19008e-09 1.22665e-07 -0.000290995 -76.3132 5.7174 -1.318e-11 0.001415 
8779 1 0.0136066 -0.0379801 0.0054532 0 0 0 2.27088e-19 1.03596e-19 -0.242154 -2.15994e-25 -9.8535e-26 -0.000290819 1.55084e-18 -3.39952e-18 2.49947e-32 0.001415 
6552 1 -0.00600865 -0.0297033 0.00606996 0 0 0 9.25903e-19 -1.50067e-19 -0.242154 7.49498e-21 -1.21476e-21 -0.000290819 -5.95674e-20 -3.67527e-19 -2.74955e-33 0.001415 
1407 1 0.0135434 -0.0200891 0.0067613 0 0 0 -8.61997e-19 -2.52179e-19 -0.242154 8.19885e-25 2.39859e-25 -0.000290819 -5.83702e-19 1.99521e-18 9.84911e-36 0.001415 
8589 1 -0.0402517 -0.0187189 0.00686826 0 0 0 7.33814e-20 -9.691e-19 -0.242154 -6.97964e-26 9.21755e-25 -0.000290819 -5.4332e-18 -4.11409e-19 -1.53615e-31 0.001415 
5438 1 0.0249608 -0.0142584 0.00690859 0 0 0 6.40557e-16 -1.21715e-15 -0.242154 1.78622e-17 -3.39409e-17 -0.000290819 -2.69093e-14 -1.41617e-14 -1.59646e-28 0.001415 
2100 1 -0.012979 -0.0106864 0.00697591 0 0 0 1.53805e-15 2.79062e-16 -0.242154 4.51292e-17 8.18821e-18 -0.000290819 5.95393e-16 -3.2815e-15 4.05162e-28 0.001415 
4516 1 0.00201022 -0.00437069 0.00548989 0 0 0 -1.24884e-18 1.49086e-18 -0.242154 -7.27901e-21 8.68968e-21 -0.000290819 5.79961e-18 4.85811e-18 -3.2802e-32 0.001415 
6447 1 -0.0515136 0.0117203 0.00531227 0 0 0 -1.27927e-18 1.55845e-18 -0.242154 1.21677e-24 -1.48231e-24 -0.000290819 3.38233e-18 2.77642e-18 -3.23418e-32 0.001415 
4347 1 0.0446345 0.0124385 0.00606905 0 0 0 -9.14453e-19 -3.21412e-19 -0.242154 8.69778e-25 3.0571e-25 -0.000290819 8.33324e-19 -2.3709e-18 -1.24871e-32 0.001415 
9996 1 -0.0293411 0.0177597 0.0060237 0 0 0 -2.00059e-18 -1.91116e-18 -0.242154 -6.48214e-20 -6.19237e-20 -0.000290819 -9.92952e-18 1.03942e-17 1.44001e-32 0.001415 
1281 1 -0.00910888 0.0220965 0.00643829 0 0 0 -8.68955e-19 -3.21887e-19 -0.242154 8.26503e-25 3.06161e-25 -0.000290819 -1.07234e-18 2.89486e-18 -1.24268e-33 0.001415 
4221 1 0.00751144 0.0235905 0.00538213 0 0 0 5.01574e-20 -3.70696e-19 -0.242154 -4.7707e-26 3.52586e-25 -0.000290819 3.31762e-18 4.48894e-19 -1.15645e-32 0.001415 
3550 1 0.0375782 0.0284832 0.0061372 0 0 0 -1.33971e-18 7.8374e-18 -0.242154 -1.28453e-19 7.51463e-19 -0.000290819 1.32931e-16 2.27228e-17 -2.172e-32 0.001415 
2814 1 0.0624335 0.0274639 0.00544006 0 0 0 1.78693e-19 9.06674e-19 -0.242154 -1.69963e-25 -8.6238e-25 -0.000290819 -1.67107e-18 3.29346e-19 1.11995e-32 0.001415 
8777 1 0.0130109 0.0334818 0.00525703 0 0 0 6.29496e-18 -1.05942e-17 -0.242154 8.91587e-19 -1.50051e-18 -0.000290819 -4.93635e-16 -2.93313e-16 4.7965e-31 0.001415 
484 1 0.0153265 0.0412785 0.00652771 0 0 0 3.26018e-18 -2.76332e-18 -0.242154 2.33536e-19 -1.97945e-19 -0.000290819 -1.93333e-17 -2.28095e-17 1.18668e-32 0.001415 
4097 1 0.0483957 0.0416236 0.0065357 0 0 0 -7.35957e-17 2.50242e-17 -0.242154 -2.23584e-17 7.60236e-18 -0.000290819 -1.26e-15 -3.70565e-15 3.18685e-30 0.001415 
4640 1 -0.000842548 0.0468509 0.00706491 0 0 0 -1.52119e-15 8.19093e-16 -0.242154 -3.96357e-17 2.13421e-17 -0.000290819 8.07837e-15 1.50028e-14 -9.34488e-28 0.001415 
7350 1 0.0388042 0.0484249 0.00676877 0 0 0 -8.37038e-21 -1.41551e-19 -0.242154 7.96145e-27 1.34635e-25 -0.000290819 -2.91735e-18 1.72513e-19 1.45389e-33 0.001415 
5122 1 -0.00838197 -0.0644234 0.00760381 0 0 0 -2.08359e-16 -7.33416e-17 -0.242154 -1.04588e-17 -3.68145e-18 -0.000290819 -5.95742e-16 1.69246e-15 -5.53519e-29 0.001415 
9219 1 -0.0350531 -0.0474779 0.00832743 0 0 0 0 0 -0.242154 0 0 -0.000290819 0 0 0 0.001415 
8295 1 0.0424827 -0.0477148 0.00859515 0 0 0 0 0 -0.242154 0 0 -0.000290819 0 0 0 0.001415 
8780 1 0.0123897 -0.0385353 0.00794715 0 0 0 4.20523e-17 1.9184e-17 -0.242154 2.80705e-19 1.28056e-19 -0.000290819 -3.38343e-15 7.41664e-15 -1.72058e-29 0.001415 
6551 1 -0.00658842 -0.0296093 0.00883834 0 0 0 6.13691e-18 -9.94648e-19 -0.242154 3.89754e-20 -6.31699e-21 -0.000290819 -1.80629e-16 -1.11447e-15 4.40791e-31 0.001415 
9889 1 -0.0544321 -0.00468185 0.00746806 0 0 0 2.39779e-16 -2.9948e-16 -0.242154 1.0434e-17 -1.30319e-17 -0.000290819 -2.54912e-15 -2.04095e-15 3.00379e-29 0.001415 
4517 1 0.00302288 -0.0055796 0.00783977 0 0 0 1.24884e-18 -1.49086e-18 -0.242154 7.27901e-21 -8.68968e-21 -0.000290819 5.79961e-18 4.85811e-18 -3.2802e-32 0.001415 
3528 1 0.0516347 -0.000942708 0.00891975 0 0 0 -2.59283e-17 -1.17922e-17 -0.242154 -1.59986e-19 -7.27615e-20 -0.000290819 -1.7894e-15 3.93448e-15 -2.2414e-29 0.001415 
7477 1 0.00556963 0.00632744 0.00770867 0 0 0 -2.8598e-17 2.90001e-17 -0.242154 -4.64193e-18 4.70721e-18 -0.000290819 -1.88252e-16 -1.85641e-16 9.89817e-30 0.001415 
6446 1 -0.0505093 0.0104969 0.00765823 0 0 0 -1.31901e-17 1.60686e-17 -0.242154 -2.38371e-18 2.90392e-18 -0.000290819 1.20309e-16 9.87569e-17 3.05556e-30 0.001415 
5819 1 0.0733204 0.0105822 0.00739628 0 0 0 3.18225e-16 -3.05868e-16 -0.242154 1.63979e-17 -1.57612e-17 -0.000290819 6.38149e-16 6.63931e-16 7.38757e-29 0.001415 
4368 1 0.0417993 0.0124877 0.00793708 0 0 0 0 0 -0.242154 0 0 -0.000290819 0 0 0 0.001415 
4346 1 0.0459771 0.0129104 0.00851522 0 0 0 -1.59325e-17 -5.59995e-18 -0.242154 -1.21514e-19 -4.27097e-20 -0.000290819 -5.89585e-16 1.67743e-15 2.82493e-30 0.001415 
9995 1 -0.0283179 0.0187371 0.00847455 0 0 0 2.00059e-18 1.91116e-18 -0.242154 6.48214e-20 6.19237e-20 -0.000290819 -9.92952e-18 1.03942e-17 1.44001e-32 0.001415 
4220 1 0.00732219 0.0249892 0.00783505 0 0 0 2.54347e-18 -1.87979e-17 -0.242154 1.94169e-20 -1.43504e-19 -0.000290819 -3.50519e-15 -4.74274e-16 1.0412e-30 0.001415 
2813 1 0.0621842 0.0261988 0.00795924 0 0 0 2.44274e-18 1.23942e-17 -0.242154 2.19512e-20 1.11379e-19 -0.000290819 3.64738e-15 -7.18849e-16 -4.3134e-30 0.001415 
3551 1 0.0378271 0.027027 0.00855095 0 0 0 1.33971e-18 -7.8374e-18 -0.242154 1.28453e-19 -7.51463e-19 -0.000290819 1.32931e-16 2.27228e-17 -2.172e-32 0.001415 
8776 1 0.0132433 0.0330907 0.00805021 0 0 0 -1.39974e-18 2.35571e-18 -0.242154 -1.50967e-20 2.54072e-20 -0.000290819 9.63099e-16 5.72264e-16 1.69368e-30 0.001415 
3969 1 -0.0266131 0.0377733 0.00745553 0 0 0 -1.9917e-16 6.23097e-16 -0.242154 -8.49186e-18 2.65665e-17 -0.000290819 -6.41396e-15 -2.05019e-15 1.44395e-29 0.001415 
7875 1 -0.0151895 0.0366812 0.00785645 0 0 0 6.59707e-18 7.8033e-18 -0.242154 5.17926e-20 6.12625e-20 -0.000290819 1.55951e-15 -1.31844e-15 6.7637e-30 0.001415 
485 1 0.0142511 0.04219 0.0089816 0 0 0 -3.26018e-18 2.76332e-18 -0.242154 -2.33536e-19 1.97945e-19 -0.000290819 -1.93333e-17 -2.28095e-17 1.18668e-32 0.001415 
5121 1 -0.0078553 -0.064238 0.0103782 0 0 0 1.60865e-16 5.66241e-17 -0.242154 9.67021e-18 3.40388e-18 -0.000290819 -1.17637e-15 3.34198e-15 2.97243e-28 0.001415 
6406 1 -0.013834 -0.0547628 0.00925555 0 0 0 2.32942e-17 -6.79117e-18 -0.242154 1.44778e-19 -4.22084e-20 -0.000290819 -8.9436e-16 -3.06772e-15 1.6749e-29 0.001415 
4747 1 -0.048396 -0.0516837 0.0100443 0 0 0 -7.00212e-17 1.02379e-17 -0.242154 -4.45885e-19 6.51935e-20 -0.000290819 3.35044e-16 2.29151e-15 6.57047e-30 0.001415 
8904 1 0.00698378 -0.051284 0.0095637 0 0 0 0 0 -0.242154 0 0 -0.000290819 0 0 0 0.001415 
9218 1 -0.0344149 -0.0491301 0.0105347 0 0 0 -2.07846e-17 5.38003e-17 -0.242154 -2.2487e-19 5.8207e-19 -0.000290819 -1.24485e-14 -4.80923e-15 -8.43445e-29 0.001415 
8294 1 0.0417911 -0.0460756 0.0107959 0 0 0 0 0 -0.242154 0 0 -0.000290819 0 0 0 0.001415 
8781 1 0.0111727 -0.0390904 0.0104411 0 0 0 -1.14781e-18 -5.23623e-19 -0.242154 3.97163e-19 1.81183e-19 -0.000290819 -6.32705e-15 1.38692e-14 5.30289e-29 0.001415 
165 1 0.0235399 -0.0395754 0.00972053 0 0 0 -0.00268461 -0.0358329 -0.0230452 1.5177e-09 2.02576e-08 -0.000291037 -10.122 0.758341 -1.93312e-11 0.001415 
9787 1 -0.0202299 -0.023698 0.0096535 0 0 0 -1.07484e-17 -1.33653e-17 -0.242154 -8.50472e-20 -1.05754e-19 -0.000290819 -5.6975e-16 4.58194e-16 -6.56896e-29 0.001415 
1406 1 0.0148736 -0.0197 0.00922871 0 0 0 8.61997e-19 2.52179e-19 -0.242154 -8.19885e-25 -2.39859e-25 -0.000290819 -5.83702e-19 1.99521e-18 9.84911e-36 0.001415 
8588 1 -0.0403296 -0.0176897 0.00950333 0 0 0 1.14886e-17 -1.51722e-16 -0.242154 1.16355e-19 -1.53663e-18 -0.000290819 2.74085e-14 2.0754e-15 1.78771e-28 0.001415 
4389 1 -0.00210167 -0.0164576 0.0106378 0 0 0 3.20482e-17 -1.56231e-17 -0.242154 5.05623e-19 -2.46485e-19 -0.000290819 -6.38267e-17 -1.3093e-16 -5.27163e-29 0.001415 
8820 1 0.00980992 -0.0172644 0.00983112 0 0 0 0 0 -0.242154 0 0 -0.000290819 0 0 0 0.001415 
3529 1 0.0670132 -0.0166749 0.0101311 0 0 0 4.17791e-18 5.1313e-18 -0.242154 3.68926e-19 4.53114e-19 -0.000290819 -2.03216e-16 1.65459e-16 -4.54298e-29 0.001415 
4473 1 -0.0215554 -0.0144106 0.0096078 0 0 0 0 0 -0.242154 0 0 -0.000290819 0 0 0 0.001415 
5437 1 0.0244153 -0.0132218 0.00948476 0 0 0 -5.97582e-16 1.13549e-15 -0.242154 -1.69733e-17 3.22519e-17 -0.000290819 -1.61682e-14 -8.50894e-15 5.83531e-29 0.001415 
2099 1 -0.0146787 -0.0109948 0.00921748 0 0 0 -1.48321e-15 -2.69112e-16 -0.242154 -4.35982e-17 -7.91042e-18 -0.000290819 1.05802e-15 -5.83127e-15 2.32072e-28 0.001415 
4518 1 0.00403554 -0.00678852 0.0101897 0 0 0 -5.43287e-17 6.48575e-17 -0.242154 -5.59375e-19 6.67781e-19 -0.000290819 -2.26833e-14 -1.90009e-14 -8.60975e-28 0.001415 
9888 1 -0.0548111 -0.00420847 0.0102323 0 0 0 -2.10669e-16 2.63122e-16 -0.242154 -9.86126e-18 1.23166e-17 -0.000290819 -2.42684e-15 -1.94305e-15 3.70741e-29 0.001415 
2457 1 0.0227749 0.00368251 0.00924274 0 0 0 0 0 -0.242154 0 0 -0.000290819 0 0 0 0.001415 
1470 1 -0.0541433 0.00552442 0.0104799 0 0 0 6.47881e-17 6.24333e-17 -0.242154 6.7184e-19 6.47421e-19 -0.000290819 -2.50543e-14 2.59993e-14 -1.6257e-28 0.001415 
7478 1 0.0063252 0.00556124 0.0103261 0 0 0 5.0566e-18 -5.12771e-18 -0.242154 4.24473e-18 -4.30442e-18 -0.000290819 -6.04835e-16 -5.96448e-16 -2.60831e-28 0.001415 
5545 1 -0.0302182 0.00727945 0.0106202 0 0 0 0 0 -0.242154 0 0 -0.000290819 0 0 0 0.001415 
6445 1 -0.0495051 0.00927345 0.0100042 0 0 0 7.09669e-18 -8.64543e-18 -0.242154 2.31249e-18 -2.81715e-18 -0.000290819 1.84556e-15 1.51495e-15 2.54677e-29 0.001415 
4431 1 -0.0620527 0.012605 0.00999871 0 0 0 -8.54597e-17 1.82561e-17 -0.242154 -8.53042e-19 1.82229e-19 -0.000290819 -5.35024e-15 -2.50453e-14 6.59528e-29 0.001415 
4367 1 0.0426483 0.0117219 0.0105258 0 0 0 -5.7579e-17 5.19404e-17 -0.242154 -6.72285e-19 6.06449e-19 -0.000290819 -5.61215e-15 -6.22139e-15 -3.72486e-28 0.001415 
4345 1 0.0473197 0.0133822 0.0109614 0 0 0 -2.56707e-17 -9.02273e-18 -0.242154 -5.82203e-19 -2.04633e-19 -0.000290819 2.22434e-15 -6.32848e-15 -2.92439e-28 0.001415 
5820 1 0.0722357 0.0116248 0.00979322 0 0 0 -3.02467e-16 2.90721e-16 -0.242154 -1.61174e-17 1.54915e-17 -0.000290819 -1.11441e-15 -1.15944e-15 1.68491e-29 0.001415 
9994 1 -0.0272948 0.0197145 0.0109254 0 0 0 -8.56499e-17 -8.18211e-17 -0.242154 -9.22295e-19 -8.81065e-19 -0.000290819 1.80946e-14 -1.89413e-14 -5.57221e-28 0.001415 
1280 1 -0.00826091 0.0224106 0.00911993 0 0 0 8.68955e-19 3.21887e-19 -0.242154 -8.26503e-25 -3.06161e-25 -0.000290819 -1.07234e-18 2.89486e-18 -1.24268e-33 0.001415 
2812 1 0.0619348 0.0249338 0.0104784 0 0 0 1.61761e-17 8.2076e-17 -0.242154 1.9548e-19 9.91849e-19 -0.000290819 -8.96975e-15 1.76782e-15 9.71821e-29 0.001415 
4219 1 0.00713294 0.0263879 0.010288 0 0 0 1.05611e-17 -7.80536e-17 -0.242154 1.37426e-19 -1.01567e-18 -0.000290819 2.0345e-14 2.75281e-15 2.06707e-28 0.001415 
3552 1 0.038076 0.0255707 0.0109647 0 0 0 -1.06822e-17 6.24922e-17 -0.242154 -1.35002e-19 7.89775e-19 -0.000290819 -1.44957e-14 -2.47786e-15 3.23233e-28 0.001415 
6216 1 -0.023401 0.0310553 0.0103574 0 0 0 -4.15125e-18 -1.93015e-17 -0.242154 -2.87914e-20 -1.33867e-19 -0.000290819 -2.19738e-15 4.726e-16 8.38733e-30 0.001415 
8775 1 0.0134757 0.0326995 0.0108434 0 0 0 -1.21455e-17 2.04404e-17 -0.242154 -1.91544e-19 3.22362e-19 -0.000290819 6.29325e-16 3.73939e-16 -8.90818e-30 0.001415 
3968 1 -0.0261983 0.0364757 0.00993606 0 0 0 1.9917e-16 -6.23097e-16 -0.242154 8.49186e-18 -2.65665e-17 -0.000290819 -6.41396e-15 -2.05019e-15 1.44395e-29 0.001415 
7874 1 -0.0157052 0.0360712 0.0105714 0 0 0 1.56029e-17 1.84557e-17 -0.242154 3.80765e-19 4.50386e-19 -0.000290819 1.87846e-15 -1.58809e-15 -2.22646e-28 0.001415 
9745 1 -0.0323504 0.0411674 0.00924237 0 0 0 0 0 -0.242154 0 0 -0.000290819 0 0 0 0.001415 
4098 1 0.0474587 0.0419422 0.00918698 0 0 0 4.17352e-18 -1.41909e-18 -0.242154 -3.4334e-20 1.16743e-20 -0.000290819 4.78352e-17 1.40683e-16 3.47641e-30 0.001415 
4639 1 0.000319678 0.0462251 0.0095682 0 0 0 1.45145e-15 -7.81544e-16 -0.242154 3.79449e-17 -2.04317e-17 -0.000290819 9.65135e-15 1.79241e-14 -6.42005e-28 0.001415 
7349 1 0.0388392 0.0490157 0.0095362 0 0 0 -2.94829e-18 -4.98583e-17 -0.242154 -3.64317e-20 -6.16093e-19 -0.000290819 6.49575e-15 -3.84116e-16 -4.92661e-29 0.001415 
6048 1 -0.0014895 0.0671831 0.0108506 0 0 0 -1.02009e-16 -6.12996e-18 -0.242154 -1.15831e-18 -6.96056e-20 -0.000290819 1.17775e-15 -1.9599e-14 -1.41768e-28 0.001415 
3318 1 0.0108764 -0.0748018 0.0116253 0 0 0 0 0 -0.242154 0 0 -0.000290819 0 0 0 0.001415 
6407 1 -0.0157638 -0.0542001 0.0112476 0 0 0 -2.32942e-17 6.79117e-18 -0.242154 -1.44778e-19 4.22084e-20 -0.000290819 -8.9436e-16 -3.06772e-15 1.6749e-29 0.001415 
4748 1 -0.0463698 -0.05198 0.0119977 0 0 0 -1.16961e-17 1.7101e-18 -0.242154 -4.19936e-19 6.13994e-20 -0.000290819 -5.83535e-15 -3.99103e-14 1.67464e-28 0.001415 
8903 1 0.00719176 -0.0530399 0.0117734 0 0 0 -9.63647e-18 8.13555e-17 -0.242154 -1.04652e-19 8.83516e-19 -0.000290819 -2.27142e-14 -2.69047e-15 2.40512e-28 0.001415 
9217 1 -0.0337766 -0.0507822 0.0127419 0 0 0 -3.56366e-16 9.22444e-16 -0.242154 -1.46472e-18 3.79138e-18 -0.000290819 4.60733e-15 1.77994e-15 1.39682e-27 0.001415 
8421 1 -0.0125515 -0.050364 0.0114508 0 0 0 1.23324e-17 -3.29299e-17 -0.242154 2.0432e-19 -5.45576e-19 -0.000290819 4.21838e-15 1.5798e-15 -9.49215e-28 0.001415 
5040 1 0.0412118 -0.051077 0.0110279 0 0 0 0 0 -0.242154 0 0 -0.000290819 0 0 0 0.001415 
164 1 0.0235026 -0.0400727 0.0125326 0 0 0 -0.00275482 -0.0367701 -0.00184606 1.52666e-09 2.03771e-08 -0.000291049 8.21592 -0.615538 -1.82191e-11 0.001415 
7141 1 -0.0440609 -0.0300013 0.0119884 0 0 0 0 0 -0.242154 0 0 -0.000290819 0 0 0 0.001415 
6550 1 -0.00716818 -0.0295154 0.0116067 0 0 0 -2.56521e-18 4.1576e-19 -0.242154 3.45797e-19 -5.60455e-20 -0.000290819 -2.15879e-16 -1.33196e-15 -1.43603e-29 0.001415 
1113 1 0.057839 -0.0250229 0.0128187 0 0 0 1.72261e-15 8.83775e-16 -0.242154 1.07326e-17 5.50633e-18 -0.000290819 1.80385e-14 -3.51597e-14 2.66622e-28 0.001415 
9788 1 -0.0191042 -0.0222982 0.0118404 0 0 0 -4.78182e-17 -5.94604e-17 -0.242154 -6.63656e-19 -8.25235e-19 -0.000290819 1.99322e-14 -1.60295e-14 1.14302e-27 0.001415 
1405 1 0.0162037 -0.0193109 0.0116961 0 0 0 -1.17817e-16 -3.44675e-17 -0.242154 -1.26913e-18 -3.71288e-19 -0.000290819 6.77669e-15 -2.31641e-14 -7.14167e-28 0.001415 
8819 1 0.00974619 -0.0192248 0.0118712 0 0 0 3.99576e-18 1.22897e-16 -0.242154 3.8993e-20 1.1993e-18 -0.000290819 -2.62888e-14 8.54729e-16 -2.37473e-28 0.001415 
3530 1 0.0663652 -0.0174708 0.0127684 0 0 0 8.43204e-16 1.03562e-15 -0.242154 1.15224e-18 1.41517e-18 -0.000290819 7.43433e-15 -6.05304e-15 8.21227e-29 0.001415 
8587 1 -0.0404076 -0.0166605 0.0121384 0 0 0 6.43464e-17 -8.4978e-16 -0.242154 2.46905e-19 -3.26071e-18 -0.000290819 -1.27546e-14 -9.6579e-16 -3.79039e-29 0.001415 
4472 1 -0.0211077 -0.0159411 0.0119457 0 0 0 -4.09819e-17 1.40088e-16 -0.242154 -3.75961e-19 1.28514e-18 -0.000290819 -3.46261e-14 -1.01297e-14 -5.49957e-28 0.001415 
5436 1 0.0238697 -0.0121851 0.0120609 0 0 0 -3.0158e-19 5.73046e-19 -0.242154 -4.00798e-19 7.61576e-19 -0.000290819 1.69632e-14 8.92728e-15 2.49691e-28 0.001415 
2098 1 -0.0163785 -0.0113032 0.0114591 0 0 0 -5.48377e-17 -9.9497e-18 -0.242154 -1.531e-18 -2.77784e-19 -0.000290819 4.62627e-16 -2.54976e-15 -1.7309e-28 0.001415 
4519 1 0.0050482 -0.00799743 0.0125395 0 0 0 -5.8357e-16 6.96665e-16 -0.242154 -2.80193e-18 3.34494e-18 -0.000290819 3.29277e-15 2.75823e-15 1.39752e-27 0.001415 
3527 1 0.053278 -0.000195356 0.0110992 0 0 0 2.59283e-17 1.17922e-17 -0.242154 1.59986e-19 7.27615e-20 -0.000290819 -1.7894e-15 3.93448e-15 -2.2414e-29 0.001415 
4852 1 -0.0576017 0.00160357 0.0118602 0 0 0 4.23818e-17 6.95395e-17 -0.242154 4.55816e-19 7.47898e-19 -0.000290819 -1.39855e-14 8.52364e-15 6.96816e-28 0.001415 
9744 1 -0.0476714 0.00124731 0.0127808 0 0 0 2.61269e-17 2.97607e-17 -0.242154 2.98233e-19 3.39712e-19 -0.000290819 -1.36405e-14 1.1975e-14 6.03228e-28 0.001415 
2456 1 0.0231999 0.00341526 0.0120279 0 0 0 -3.55877e-16 2.23801e-16 -0.242154 -1.49756e-18 9.41778e-19 -0.000290819 4.88155e-15 7.76238e-15 -2.77326e-28 0.001415 
1469 1 -0.0554428 0.00427207 0.0126597 0 0 0 7.48455e-16 7.21251e-16 -0.242154 3.23688e-18 3.11923e-18 -0.000290819 1.74719e-14 -1.81309e-14 -1.11695e-29 0.001415 
6444 1 -0.0485008 0.00805 0.0123501 0 0 0 -6.63782e-17 8.08642e-17 -0.242154 -7.6287e-19 9.29354e-19 -0.000290819 -1.92866e-14 -1.58316e-14 -1.54755e-27 0.001415 
5546 1 -0.0286421 0.00814112 0.0128071 0 0 0 -1.34128e-15 -7.33296e-16 -0.242154 -6.58379e-18 -3.59945e-18 -0.000290819 -2.9961e-14 5.4802e-14 -4.03596e-27 0.001415 
7897 1 0.0202104 0.0106666 0.012203 0 0 0 2.14997e-17 1.02481e-16 -0.242154 2.19914e-19 1.04824e-18 -0.000290819 -3.25703e-14 6.83301e-15 8.05948e-29 0.001415 
4430 1 -0.0607358 0.0123237 0.0124878 0 0 0 -8.51953e-16 1.81996e-16 -0.242154 -3.59778e-18 7.68566e-19 -0.000290819 1.58331e-15 7.41171e-15 -9.23174e-29 0.001415 
5821 1 0.071151 0.0126674 0.0121902 0 0 0 -1.59955e-17 1.53744e-17 -0.242154 -2.8059e-19 2.69694e-19 -0.000290819 -1.75281e-15 -1.82363e-15 -5.70267e-29 0.001415 
1279 1 -0.00741294 0.0227247 0.0118016 0 0 0 -8.99261e-17 -3.33113e-17 -0.242154 -1.0691e-18 -3.96028e-19 -0.000290819 2.62492e-16 -7.08615e-16 -1.57413e-28 0.001415 
4218 1 0.00694369 0.0277865 0.0127409 0 0 0 1.62184e-16 -1.19864e-15 -0.242154 4.25542e-19 -3.14503e-18 -0.000290819 -4.23439e-14 -5.72939e-15 2.31368e-28 0.001415 
9955 1 0.0480973 0.0295036 0.0112601 0 0 0 0 0 -0.242154 0 0 -0.000290819 0 0 0 0.001415 
6215 1 -0.0229502 0.0331509 0.0122051 0 0 0 -1.02001e-17 -4.74259e-17 -0.242154 -1.31523e-19 -6.11525e-19 -0.000290819 3.204e-14 -6.89097e-15 -2.98505e-28 0.001415 
3967 1 -0.0257836 0.0351781 0.0124166 0 0 0 -3.10047e-16 9.69971e-16 -0.242154 -1.41604e-18 4.43002e-18 -0.000290819 1.71755e-14 5.49006e-15 -9.09844e-28 0.001415 
4099 1 0.0465216 0.0422608 0.0118383 0 0 0 2.17859e-17 -7.4077e-18 -0.242154 6.19324e-19 -2.10584e-19 -0.000290819 -4.96031e-16 -1.45882e-15 -2.97186e-28 0.001415 
9746 1 -0.0326219 0.0429159 0.011451 0 0 0 1.43217e-17 -9.22368e-17 -0.242154 1.51837e-19 -9.77885e-19 -0.000290819 2.48556e-14 3.85935e-15 -3.88665e-28 0.001415 
486 1 0.0131757 0.0431015 0.0114355 0 0 0 1.03009e-16 -8.73101e-17 -0.242154 1.006e-18 -8.52681e-19 -0.000290819 2.19823e-14 2.59348e-14 -3.53566e-28 0.001415 
4638 1 0.00148191 0.0455993 0.0120715 0 0 0 1.2314e-17 -6.63054e-18 -0.242154 9.05448e-19 -4.87544e-19 -0.000290819 -4.83991e-15 -8.98849e-15 8.439e-28 0.001415 
7348 1 0.0388741 0.0496065 0.0123036 0 0 0 -3.76788e-17 -6.37183e-16 -0.242154 -1.6935e-19 -2.86386e-18 -0.000290819 3.70421e-15 -2.19043e-16 2.66721e-29 0.001415 
8316 1 0.0241447 0.055508 0.0120031 0 0 0 0 0 -0.242154 0 0 -0.000290819 0 0 0 0.001415 
4831 1 0.0293284 0.0560787 0.0124724 0 0 0 9.82896e-16 -5.46384e-16 -0.242154 4.81711e-18 -2.67779e-18 -0.000290819 -2.19251e-14 -3.94412e-14 -3.86074e-28 0.001415 
6909 1 0.00964204 0.0590336 0.0125065 0 0 0 2.1034e-16 -1.26736e-16 -0.242154 1.7516e-18 -1.05539e-18 -0.000290819 3.60491e-14 5.98299e-14 -9.88627e-28 0.001415 
8757 1 0.00829498 0.0765507 0.0128614 0 0 0 0 0 -0.242154 0 0 -0.000290819 0 0 0 0.001415 
3317 1 0.00879117 -0.0741345 0.0134184 0 0 0 1.26677e-15 -4.05384e-16 -0.242154 2.2023e-18 -7.04765e-19 -0.000290819 -2.16701e-14 -6.77161e-14 -1.82241e-27 0.001415 
4537 1 0.0348065 -0.0668743 0.0133964 0 0 0 4.56663e-16 -8.8932e-16 -0.242154 -4.34353e-22 8.45873e-22 -0.000290819 9.44185e-15 4.84835e-15 -4.63247e-29 0.001415 
5120 1 -0.00732864 -0.0640527 0.0131526 0 0 0 -5.28406e-16 -1.85997e-16 -0.242154 7.89101e-19 2.77761e-19 -0.000290819 2.33932e-15 -6.64585e-15 4.00882e-28 0.001415 
8902 1 0.00739974 -0.0547957 0.0139831 0 0 0 -1.70422e-16 1.43878e-15 -0.242154 1.04823e-19 -8.84962e-19 -0.000290819 1.42874e-14 1.69233e-15 1.10976e-28 0.001415 
4749 1 -0.0443437 -0.0522762 0.0139511 0 0 0 -1.10322e-15 1.61303e-16 -0.242154 8.66948e-19 -1.26758e-19 -0.000290819 3.00288e-15 2.05379e-14 -5.38871e-29 0.001415 
6408 1 -0.0176936 -0.0536375 0.0132396 0 0 0 2.71686e-15 -7.92072e-16 -0.242154 2.27529e-17 -6.63335e-18 -0.000290819 -2.92739e-14 -1.00412e-13 -3.13448e-27 0.001415 
5039 1 0.0393096 -0.0515993 0.0130571 0 0 0 1.70665e-15 4.68612e-16 -0.242154 1.03444e-17 2.84037e-18 -0.000290819 1.54044e-14 -5.61017e-14 2.66265e-27 0.001415 
8420 1 -0.0130316 -0.0490822 0.0139278 0 0 0 4.68745e-16 -1.25164e-15 -0.242154 -2.04778e-19 5.46798e-19 -0.000290819 -1.12603e-14 -4.21701e-15 1.20783e-27 0.001415 
8293 1 0.0410995 -0.0444363 0.0129967 0 0 0 6.78669e-16 -1.60857e-15 -0.242154 2.79214e-18 -6.61789e-18 -0.000290819 -9.71634e-14 -4.0994e-14 -1.41408e-28 0.001415 
8782 1 0.00995582 -0.0396456 0.012935 0 0 0 1.06237e-15 4.84649e-16 -0.242154 -6.78917e-19 -3.09718e-19 -0.000290819 1.20938e-14 -2.65101e-14 -1.03574e-27 0.001415 
1765 1 -0.00582286 -0.0341936 0.0136899 0 0 0 1.27231e-15 -3.98155e-16 -0.242154 -1.21016e-21 3.78703e-22 -0.000290819 -1.59986e-14 -5.1124e-14 4.64336e-28 0.001415 
7142 1 -0.0430179 -0.0310366 0.014407 0 0 0 -9.67339e-16 9.60179e-16 -0.242154 9.2008e-22 -9.13271e-22 -0.000290819 2.60943e-14 2.62888e-14 -1.619e-28 0.001415 
6549 1 -0.00774795 -0.0294214 0.0143751 0 0 0 6.5376e-16 -1.05959e-16 -0.242154 -3.92893e-19 6.36787e-20 -0.000290819 8.73976e-16 5.39237e-15 7.99427e-29 0.001415 
2898 1 -0.0015393 -0.0260351 0.0139621 0 0 0 8.4785e-16 -1.67374e-16 -0.242154 -8.06429e-22 1.59197e-22 -0.000290819 -5.03185e-16 -2.54894e-15 -8.95329e-29 0.001415 
2604 1 -0.0264828 -0.0239558 0.0136866 0 0 0 1.85229e-15 -8.06477e-17 -0.242154 1.26237e-17 -5.49631e-19 -0.000290819 -3.68616e-15 -8.46626e-14 -1.93347e-28 0.001415 
7959 1 -0.0480224 -0.0227988 0.0143686 0 0 0 -1.34107e-15 8.3646e-16 -0.242154 1.27555e-21 -7.95595e-22 -0.000290819 2.46523e-14 3.95242e-14 2.38024e-27 0.001415 
8818 1 0.00968245 -0.0211851 0.0139113 0 0 0 4.37592e-17 1.34589e-15 -0.242154 -3.90384e-20 -1.2007e-18 -0.000290819 8.63019e-15 -2.80594e-16 -1.21707e-28 0.001415 
9789 1 -0.0179785 -0.0208985 0.0140272 0 0 0 -9.84718e-16 -1.22447e-15 -0.242154 7.49695e-19 9.32222e-19 -0.000290819 -2.24037e-14 1.80171e-14 1.2083e-28 0.001415 
4471 1 -0.0206599 -0.0174716 0.0142837 0 0 0 -3.26473e-16 1.11598e-15 -0.242154 3.76311e-19 -1.28634e-18 -0.000290819 2.09395e-16 6.12573e-17 -2.425e-28 0.001415 
1404 1 0.0175339 -0.0189217 0.0141635 0 0 0 -1.16357e-15 -3.40406e-16 -0.242154 1.27035e-18 3.71644e-19 -0.000290819 -1.20941e-15 4.134e-15 5.12786e-28 0.001415 
8586 1 -0.0404855 -0.0156313 0.0147735 0 0 0 -6.11983e-17 8.08206e-16 -0.242154 -3.63274e-19 4.79752e-18 -0.000290819 -4.04184e-14 -3.06053e-15 -2.0492e-28 0.001415 
4388 1 -0.00265555 -0.0161876 0.0133999 0 0 0 5.52561e-16 -2.69367e-16 -0.242154 -5.06179e-19 2.46756e-19 -0.000290819 2.10066e-15 4.30915e-15 6.61309e-31 0.001415 
2097 1 -0.0180782 -0.0116116 0.0137006 0 0 0 1.47476e-15 2.67579e-16 -0.242154 -1.40271e-21 -2.54507e-22 -0.000290819 8.10388e-15 -4.46644e-14 -1.6409e-27 0.001415 
5435 1 0.0233242 -0.0111485 0.0146371 0 0 0 5.31865e-16 -1.01062e-15 -0.242154 -4.88656e-19 9.28519e-19 -0.000290819 -2.11306e-15 -1.11205e-15 -3.1935e-28 0.001415 
9887 1 -0.0551901 -0.00373509 0.0129966 0 0 0 3.80614e-16 -4.75381e-16 -0.242154 -5.73163e-19 7.15872e-19 -0.000290819 6.26174e-15 5.01347e-15 -1.85673e-29 0.001415 
4853 1 -0.0586257 -7.65915e-05 0.0138942 0 0 0 7.45817e-16 1.22373e-15 -0.242154 -4.56565e-19 -7.49128e-19 -0.000290819 9.1811e-15 -5.59554e-15 -1.38082e-27 0.001415 
9743 1 -0.0492029 -0.00049722 0.0143994 0 0 0 6.52286e-16 7.43008e-16 -0.242154 -2.98878e-19 -3.40447e-19 -0.000290819 2.16773e-14 -1.90304e-14 1.60908e-27 0.001415 
3403 1 0.0399954 0.00144601 0.0129158 0 0 0 -1.50489e-15 7.12147e-17 -0.242154 -9.04985e-18 4.28258e-19 -0.000290819 2.62021e-15 5.53697e-14 -4.41616e-28 0.001415 
3526 1 0.0549212 0.000551996 0.0132787 0 0 0 -1.47333e-15 -6.70071e-16 -0.242154 1.40135e-21 6.37335e-22 -0.000290819 -2.19834e-14 4.83364e-14 -1.36599e-27 0.001415 
3843 1 -0.0432547 0.00201405 0.0135012 0 0 0 1.21464e-15 8.27608e-16 -0.242154 -1.1553e-21 -7.87176e-22 -0.000290819 1.69874e-14 -2.49315e-14 2.01321e-27 0.001415 
2455 1 0.0236249 0.00314802 0.014813 0 0 0 2.08399e-16 -1.31056e-16 -0.242154 1.49771e-18 -9.41866e-19 -0.000290819 5.52518e-15 8.78584e-15 -2.32114e-28 0.001415 
6238 1 0.0476834 0.00358837 0.0130367 0 0 0 1.92142e-15 -1.23628e-15 -0.242154 1.02754e-17 -6.61135e-18 -0.000290819 -4.87047e-14 -7.5697e-14 1.08347e-27 0.001415 
7479 1 0.00708078 0.00479504 0.0129435 0 0 0 -7.34033e-16 7.44355e-16 -0.242154 3.97925e-19 -4.03521e-19 -0.000290819 3.14511e-15 3.1015e-15 4.89347e-28 0.001415 
6443 1 -0.0474965 0.00682656 0.0146961 0 0 0 -8.27193e-16 1.00771e-15 -0.242154 8.3495e-19 -1.01716e-18 -0.000290819 1.48523e-14 1.21916e-14 -2.27429e-28 0.001415 
7898 1 0.0197791 0.00861083 0.0140995 0 0 0 2.83419e-16 1.35095e-15 -0.242154 -2.20204e-19 -1.04962e-18 -0.000290819 2.0673e-14 -4.33705e-15 -3.81271e-28 0.001415 
4366 1 0.0434972 0.010956 0.0131146 0 0 0 -8.10107e-16 7.30775e-16 -0.242154 6.7311e-19 -6.07194e-19 -0.000290819 3.77934e-15 4.18962e-15 -3.72366e-28 0.001415 
1176 1 0.023371 0.01534 0.014101 0 0 0 1.79911e-17 1.52446e-15 -0.242154 -1.71121e-23 -1.44998e-21 -0.000290819 2.40541e-14 -2.83877e-16 -5.20584e-30 0.001415 
4344 1 0.0486622 0.0138541 0.0134076 0 0 0 -1.3015e-15 -4.57451e-16 -0.242154 7.04994e-19 2.47791e-19 -0.000290819 -4.13346e-15 1.17602e-14 9.64387e-28 0.001415 
5822 1 0.0700663 0.01371 0.0145871 0 0 0 1.10308e-15 -1.06024e-15 -0.242154 -1.04919e-21 1.00845e-21 -0.000290819 -2.64095e-14 -2.74764e-14 9.19626e-28 0.001415 
9808 1 -0.0411335 0.0170646 0.0146323 0 0 0 1.07639e-15 -8.87747e-16 -0.242154 -1.0238e-21 8.44377e-22 -0.000290819 -3.42604e-14 -4.15407e-14 2.99052e-27 0.001415 
5629 1 -0.00809486 0.0186934 0.0132809 0 0 0 1.72699e-15 3.02112e-17 -0.242154 1.12913e-17 1.97526e-19 -0.000290819 1.56733e-15 -8.95943e-14 3.76164e-28 0.001415 
9993 1 -0.0262716 0.020692 0.0133763 0 0 0 -8.07391e-16 -7.71298e-16 -0.242154 9.23144e-19 8.81877e-19 -0.000290819 -1.15676e-14 1.21089e-14 6.31604e-28 0.001415 
1278 1 -0.00656497 0.0230388 0.0144832 0 0 0 -8.37155e-16 -3.10107e-16 -0.242154 1.06999e-18 3.96354e-19 -0.000290819 5.94192e-15 -1.60406e-14 4.78884e-29 0.001415 
3553 1 0.038325 0.0241144 0.0133785 0 0 0 -1.94934e-16 1.14038e-15 -0.242154 1.35198e-19 -7.90919e-19 -0.000290819 1.55527e-14 2.65853e-15 5.93696e-28 0.001415 
2811 1 0.0616855 0.0236687 0.0129976 0 0 0 2.44254e-16 1.23932e-15 -0.242154 -2.17681e-19 -1.1045e-18 -0.000290819 1.53867e-15 -3.03252e-16 -2.77767e-28 0.001415 
9956 1 0.047731 0.0274693 0.0131931 0 0 0 3.40952e-16 1.89357e-15 -0.242154 2.22445e-18 1.23541e-17 -0.000290819 4.88116e-14 -8.78889e-15 1.24227e-28 0.001415 
6007 1 0.0347873 0.0296881 0.0129629 0 0 0 3.8313e-16 4.29287e-16 -0.242154 -3.64412e-22 -4.08315e-22 -0.000290819 -2.63596e-15 2.35254e-15 1.33567e-29 0.001415 
8774 1 0.0137081 0.0323084 0.0136366 0 0 0 -2.4085e-16 4.05341e-16 -0.242154 2.06883e-19 -3.48176e-19 -0.000290819 -5.15373e-15 -3.0623e-15 -5.01215e-29 0.001415 
6214 1 -0.0224995 0.0352466 0.0140528 0 0 0 -2.8193e-16 -1.31085e-15 -0.242154 1.60596e-19 7.46702e-19 -0.000290819 -2.60734e-14 5.60771e-15 1.08704e-27 0.001415 
7873 1 -0.0162209 0.0354611 0.0132863 0 0 0 5.29675e-16 6.26522e-16 -0.242154 -4.33083e-19 -5.12269e-19 -0.000290819 -6.87679e-15 5.81378e-15 5.58579e-28 0.001415 
6847 1 -0.0500743 0.0395872 0.0134429 0 0 0 -1.81176e-15 7.81451e-16 -0.242154 -1.17677e-17 5.07567e-18 -0.000290819 4.50662e-14 1.04484e-13 -3.5361e-27 0.001415 