ITEM: TIMESTEP
25000
ITEM: NUMBER OF ATOMS
10248
ITEM: BOX BOUNDS ff ff ff
-0.2 0.2
-0.2 0.2
-0.01 0.5
ITEM: ATOMS id type x y z ix iy iz vx vy vz fx fy fz omegax omegay omegaz radius 
5124 1 -0.00943529 -0.0647942 0.00290447 0 0 0 -5.74177e-18 -2.02109e-18 -0.204902 -3.19744e-19 -1.12549e-19 -0.000290869 2.48439e-17 -7.05798e-17 -5.77126e-32 0.001415 
168 1 0.0236553 -0.0380352 0.00183997 0 0 0 1.12439e-18 1.50078e-17 -0.204902 1.11329e-19 1.48597e-18 -0.000290869 -3.27338e-17 2.45242e-18 -4.87143e-32 0.001415 
9891 1 -0.0536741 -0.00562861 0.00278894 0 0 0 3.81641e-18 -4.76663e-18 -0.204902 2.11452e-19 -2.641e-19 -0.000290869 7.63401e-17 6.11217e-17 -5.40742e-32 0.001415 
8778 1 0.0127785 0.033873 0.00331325 0 0 0 -2.31257e-18 3.89196e-18 -0.204902 -1.17836e-19 1.98314e-19 -0.000290869 -5.16528e-17 -3.06916e-17 -9.87681e-34 0.001415 
167 1 0.0236183 -0.0385289 0.00462632 0 0 0 -9.09917e-19 -1.21452e-17 -0.204902 -9.81219e-20 -1.30969e-18 -0.000290869 -2.28937e-17 1.7152e-18 6.20082e-32 0.001415 
5439 1 0.0255064 -0.015295 0.00518182 0 0 0 6.69783e-19 -1.27269e-18 -0.204902 -5.88801e-25 1.11881e-24 -0.000290869 -5.23958e-18 -2.75746e-18 2.22119e-33 0.001415 
4096 1 0.0493328 0.0413049 0.00473383 0 0 0 2.38563e-18 -8.11167e-19 -0.204902 1.40092e-19 -4.76344e-20 -0.000290869 -7.38191e-18 -2.17101e-17 8.78909e-33 0.001415 
5123 1 -0.00890863 -0.0646088 0.00567885 0 0 0 4.80534e-18 1.69147e-18 -0.204902 3.19745e-19 1.12549e-19 -0.000290869 2.33942e-17 -6.64614e-17 -5.4908e-32 0.001415 
8779 1 0.0136066 -0.0379801 0.00630261 0 0 0 1.14887e-19 5.24108e-20 -0.204902 -1.00996e-25 -4.60739e-26 -0.000290869 -4.07856e-19 8.94039e-19 -5.00811e-34 0.001415 
6552 1 -0.00600865 -0.0297033 0.00691937 0 0 0 7.94197e-19 -1.28721e-19 -0.204902 -6.98173e-25 1.13157e-25 -0.000290869 -4.68522e-19 -2.89075e-18 -2.04115e-34 0.001415 
9890 1 -0.0540531 -0.00515523 0.00555321 0 0 0 -2.90434e-18 3.62748e-18 -0.204902 -2.11453e-19 2.64101e-19 -0.000290869 7.03323e-17 5.63117e-17 -5.43944e-32 0.001415 
4516 1 0.00201022 -0.00437069 0.0063393 0 0 0 -1.07236e-18 1.28019e-18 -0.204902 9.42706e-25 -1.1254e-24 -0.000290869 4.69499e-18 3.93281e-18 -1.24827e-32 0.001415 
5818 1 0.0744051 0.00953964 0.00584874 0 0 0 2.36875e-19 -2.27676e-19 -0.204902 -2.08235e-25 2.00148e-25 -0.000290869 -2.53208e-19 -2.63439e-19 -1.718e-34 0.001415 
6447 1 -0.0515136 0.0117203 0.00616168 0 0 0 -1.1018e-18 1.34225e-18 -0.204902 9.68585e-25 -1.17996e-24 -0.000290869 4.42284e-18 3.63053e-18 -1.38205e-32 0.001415 
4347 1 0.0446345 0.0124385 0.00691845 0 0 0 -7.28322e-19 -2.55991e-19 -0.204902 6.40262e-25 2.25039e-25 -0.000290869 -2.6853e-19 7.63997e-19 -3.25118e-35 0.001415 
9996 1 -0.0293411 0.0177597 0.00687311 0 0 0 -1.75266e-18 -1.67431e-18 -0.204902 1.54075e-24 1.47187e-24 -0.000290869 -7.58395e-18 7.93884e-18 1.07776e-32 0.001415 
4221 1 0.00751144 0.0235905 0.00623154 0 0 0 3.08454e-20 -2.27967e-19 -0.204902 -2.7116e-26 2.00404e-25 -0.000290869 4.14672e-19 5.61077e-20 1.0856e-34 0.001415 
3550 1 0.0375782 0.0284832 0.0069866 0 0 0 -1.07718e-18 6.30163e-18 -0.204902 9.46944e-25 -5.53971e-24 -0.000290869 3.713e-17 6.34692e-18 -1.16611e-32 0.001415 
2814 1 0.0624335 0.0274639 0.00628947 0 0 0 1.42423e-19 7.22641e-19 -0.204902 -1.25203e-25 -6.35269e-25 -0.000290869 1.1737e-18 -2.31321e-19 1.95787e-33 0.001415 
8777 1 0.0130109 0.0334818 0.00610644 0 0 0 2.11277e-18 -3.55572e-18 -0.204902 1.17836e-19 -1.98314e-19 -0.000290869 -5.08796e-17 -3.02322e-17 -1.10862e-33 0.001415 
4641 1 -0.00200478 0.0474767 0.00541102 0 0 0 -2.10653e-18 1.13428e-18 -0.204902 1.85184e-24 -9.97134e-25 -0.000290869 5.34914e-18 9.93421e-18 -2.46558e-33 0.001415 
5122 1 -0.00838197 -0.0644234 0.00845322 0 0 0 8.5491e-19 3.00926e-19 -0.204902 -5.18968e-21 -1.82675e-21 -0.000290869 3.87273e-18 -1.10022e-17 -7.95878e-32 0.001415 
8780 1 0.0123897 -0.0385353 0.00879655 0 0 0 5.13262e-18 2.34147e-18 -0.204902 3.05801e-19 1.39504e-19 -0.000290869 -8.04789e-17 1.76414e-16 -3.71867e-32 0.001415 
166 1 0.0235813 -0.0390227 0.00741267 0 0 0 -1.58245e-19 -2.11218e-18 -0.204902 -1.32073e-20 -1.76285e-19 -0.000290869 1.11038e-17 -8.31898e-19 1.10627e-31 0.001415 
1407 1 0.0135434 -0.0200891 0.0076107 0 0 0 -6.80131e-19 -1.98974e-19 -0.204902 5.97898e-25 1.74916e-25 -0.000290869 -4.80105e-19 1.64109e-18 -6.54932e-34 0.001415 
8589 1 -0.0402517 -0.0187189 0.00771767 0 0 0 5.7822e-20 -7.63617e-19 -0.204902 -5.08309e-26 6.7129e-25 -0.000290869 3.63309e-18 2.75102e-19 -1.53643e-32 0.001415 
5438 1 0.0249608 -0.0142584 0.00775799 0 0 0 -1.37479e-19 2.61231e-19 -0.204902 3.72751e-19 -7.08284e-19 -0.000290869 -8.57287e-17 -4.51168e-17 -7.23057e-32 0.001415 
2100 1 -0.012979 -0.0106864 0.00782531 0 0 0 1.21517e-18 2.2048e-19 -0.204902 7.17694e-20 1.30218e-20 -0.000290869 1.40818e-18 -7.76119e-18 2.23414e-32 0.001415 
9889 1 -0.0544321 -0.00468185 0.00831747 0 0 0 -9.12065e-19 1.13916e-18 -0.204902 8.0179e-25 -1.00142e-24 -0.000290869 -6.00772e-18 -4.81009e-18 -3.20232e-34 0.001415 
4517 1 0.00302288 -0.0055796 0.00868918 0 0 0 1.07236e-18 -1.28019e-18 -0.204902 -9.42706e-25 1.1254e-24 -0.000290869 4.69499e-18 3.93281e-18 -1.24827e-32 0.001415 
7477 1 0.00556963 0.00632744 0.00855808 0 0 0 0 0 -0.204902 0 0 -0.000290869 0 0 0 0.001415 
6446 1 -0.0505093 0.0104969 0.00850764 0 0 0 3.75246e-19 -4.57138e-19 -0.204902 -4.30183e-20 5.24064e-20 -0.000290869 -4.89743e-18 -4.02011e-18 6.01192e-32 0.001415 
5819 1 0.0733204 0.0105822 0.00824568 0 0 0 -2.36875e-19 2.27676e-19 -0.204902 2.08235e-25 -2.00148e-25 -0.000290869 -2.53208e-19 -2.63439e-19 -1.718e-34 0.001415 
4368 1 0.0417993 0.0124877 0.00878649 0 0 0 0 0 -0.204902 0 0 -0.000290869 0 0 0 0.001415 
1281 1 -0.00910888 0.0220965 0.0072877 0 0 0 -7.20078e-19 -2.66738e-19 -0.204902 6.33015e-25 2.34488e-25 -0.000290869 -8.9807e-19 2.4244e-18 -9.39211e-34 0.001415 
4220 1 0.00732219 0.0249892 0.00868445 0 0 0 2.60528e-19 -1.92547e-18 -0.204902 1.72388e-20 -1.27406e-19 -0.000290869 -1.17676e-17 -1.59223e-18 9.88582e-33 0.001415 
2813 1 0.0621842 0.0261988 0.00880865 0 0 0 1.335e-19 6.77368e-19 -0.204902 1.63715e-20 8.30674e-20 -0.000290869 -9.26675e-19 1.82635e-19 -2.08525e-32 0.001415 
8776 1 0.0132433 0.0330907 0.00889962 0 0 0 3.23868e-20 -5.45058e-20 -0.204902 -9.92668e-21 1.67062e-20 -0.000290869 -6.43317e-19 -3.82253e-19 8.34093e-33 0.001415 
3969 1 -0.0266131 0.0377733 0.00830493 0 0 0 -2.96009e-18 9.26053e-18 -0.204902 -1.72617e-19 5.40027e-19 -0.000290869 -1.24549e-16 -3.98115e-17 -4.01747e-32 0.001415 
7875 1 -0.0151895 0.0366812 0.00870586 0 0 0 7.88712e-19 9.32923e-19 -0.204902 4.63002e-20 5.47658e-20 -0.000290869 1.66062e-17 -1.40392e-17 -2.45678e-32 0.001415 
484 1 0.0153265 0.0412785 0.00737711 0 0 0 2.85394e-18 -2.419e-18 -0.204902 -2.50888e-24 2.12652e-24 -0.000290869 -1.26424e-17 -1.49156e-17 1.11472e-32 0.001415 
4097 1 0.0483957 0.0416236 0.00738511 0 0 0 -9.2601e-19 3.14864e-19 -0.204902 -1.40093e-19 4.76348e-20 -0.000290869 -8.90272e-18 -2.61828e-17 7.32706e-33 0.001415 
4640 1 -0.000842548 0.0468509 0.00791431 0 0 0 2.10653e-18 -1.13428e-18 -0.204902 -1.85184e-24 9.97134e-25 -0.000290869 5.34914e-18 9.93421e-18 -2.46558e-33 0.001415 
7350 1 0.0388042 0.0484249 0.00761818 0 0 0 -4.44053e-21 -7.50934e-20 -0.204902 3.90364e-27 6.6014e-26 -0.000290869 2.59579e-19 -1.53498e-20 3.67292e-36 0.001415 
6406 1 -0.013834 -0.0547628 0.010105 0 0 0 2.95076e-18 -8.60263e-19 -0.204902 1.73213e-19 -5.04984e-20 -0.000290869 -1.1236e-17 -3.85404e-17 -1.09017e-31 0.001415 
4747 1 -0.048396 -0.0516837 0.0108937 0 0 0 -8.75414e-18 1.27996e-18 -0.204902 -5.13609e-19 7.50956e-20 -0.000290869 -2.95296e-17 -2.01965e-16 1.12163e-31 0.001415 
8904 1 0.00698378 -0.051284 0.0104131 0 0 0 0 0 -0.204902 0 0 -0.000290869 0 0 0 0.001415 
9219 1 -0.0350531 -0.0474779 0.00917684 0 0 0 0 0 -0.204902 0 0 -0.000290869 0 0 0 0.001415 
8295 1 0.0424827 -0.0477148 0.00944456 0 0 0 0 0 -0.204902 0 0 -0.000290869 0 0 0 0.001415 
165 1 0.0235443 -0.0395164 0.010199 0 0 0 -3.98475e-20 -5.31866e-19 -0.204902 2.07123e-21 2.76458e-20 -0.000290869 8.72302e-17 -6.5353e-18 6.13175e-31 0.001415 
6551 1 -0.00658842 -0.0296093 0.00968775 0 0 0 9.94334e-20 -1.61158e-20 -0.204902 5.25548e-20 -8.5179e-21 -0.000290869 -1.12024e-18 -6.91178e-18 4.28478e-33 0.001415 
9787 1 -0.0202299 -0.023698 0.0105029 0 0 0 -1.23345e-18 -1.53375e-18 -0.204902 -7.25765e-20 -9.02466e-20 -0.000290869 -1.94547e-17 1.56455e-17 3.60374e-32 0.001415 
1406 1 0.0148736 -0.0197 0.0100781 0 0 0 6.80131e-19 1.98974e-19 -0.204902 -5.97898e-25 -1.74916e-25 -0.000290869 -4.80105e-19 1.64109e-18 -6.54932e-34 0.001415 
8588 1 -0.0403296 -0.0176897 0.0103527 0 0 0 6.63952e-19 -8.76838e-18 -0.204902 4.64275e-20 -6.13138e-19 -0.000290869 -2.17495e-16 -1.6469e-17 2.15193e-31 0.001415 
8820 1 0.00980992 -0.0172644 0.0106805 0 0 0 0 0 -0.204902 0 0 -0.000290869 0 0 0 0.001415 
3529 1 0.0670132 -0.0166749 0.0109805 0 0 0 0 0 -0.204902 0 0 -0.000290869 0 0 0 0.001415 
4473 1 -0.0215554 -0.0144106 0.0104572 0 0 0 0 0 -0.204902 0 0 -0.000290869 0 0 0 0.001415 
5437 1 0.0244153 -0.0132218 0.0103342 0 0 0 1.82797e-18 -3.47341e-18 -0.204902 -2.33858e-19 4.44366e-19 -0.000290869 3.81382e-17 2.00711e-17 4.89327e-32 0.001415 
2099 1 -0.0146787 -0.0109948 0.0100669 0 0 0 4.05704e-38 -1.22352e-33 -0.204902 -3.56651e-44 -7.07167e-35 -0.000290869 2.81637e-18 -1.55224e-17 3.20249e-32 0.001415 
3528 1 0.0516347 -0.000942708 0.00976916 0 0 0 -3.3014e-18 -1.50147e-18 -0.204902 -1.93697e-19 -8.80935e-20 -0.000290869 -2.2486e-17 4.94416e-17 1.1868e-31 0.001415 
2457 1 0.0227749 0.00368251 0.0100921 0 0 0 0 0 -0.204902 0 0 -0.000290869 0 0 0 0.001415 
6445 1 -0.0495051 0.00927345 0.0108536 0 0 0 3.83398e-21 -4.67068e-21 -0.204902 -1.60783e-22 1.95871e-22 -0.000290869 -1.13386e-17 -9.30741e-18 4.34763e-32 0.001415 
4431 1 -0.0620527 0.012605 0.0108481 0 0 0 -4.58127e-18 9.78662e-19 -0.204902 -3.21291e-19 6.8635e-20 -0.000290869 -1.50501e-17 -7.0452e-17 1.16661e-30 0.001415 
4346 1 0.0459771 0.0129104 0.00936463 0 0 0 -1.33099e-18 -4.67816e-19 -0.204902 -1.2098e-19 -4.2522e-20 -0.000290869 -8.49606e-18 2.41722e-17 -1.56735e-32 0.001415 
5820 1 0.0722357 0.0116248 0.0106426 0 0 0 1.65871e-18 -1.59429e-18 -0.204902 9.73701e-20 -9.35889e-20 -0.000290869 -2.50553e-17 -2.60676e-17 1.61248e-32 0.001415 
9995 1 -0.0283179 0.0187371 0.00932396 0 0 0 1.75266e-18 1.67431e-18 -0.204902 -1.54075e-24 -1.47187e-24 -0.000290869 -7.58395e-18 7.93884e-18 1.07776e-32 0.001415 
1280 1 -0.00826091 0.0224106 0.00996933 0 0 0 7.20078e-19 2.66738e-19 -0.204902 -6.33015e-25 -2.34488e-25 -0.000290869 -8.9807e-19 2.4244e-18 -9.39211e-34 0.001415 
3551 1 0.0378271 0.027027 0.00940036 0 0 0 1.07718e-18 -6.30163e-18 -0.204902 -9.46944e-25 5.53971e-24 -0.000290869 3.713e-17 6.34692e-18 -1.16611e-32 0.001415 
3968 1 -0.0261983 0.0364757 0.0107855 0 0 0 2.96009e-18 -9.26053e-18 -0.204902 1.72617e-19 -5.40027e-19 -0.000290869 -1.24549e-16 -3.98115e-17 -4.01747e-32 0.001415 
9745 1 -0.0323504 0.0411674 0.0100918 0 0 0 0 0 -0.204902 0 0 -0.000290869 0 0 0 0.001415 
485 1 0.0142511 0.04219 0.00983101 0 0 0 -2.85394e-18 2.419e-18 -0.204902 2.50888e-24 -2.12652e-24 -0.000290869 -1.26424e-17 -1.49156e-17 1.11472e-32 0.001415 
4098 1 0.0474587 0.0419422 0.0100364 0 0 0 -7.81419e-19 2.657e-19 -0.204902 4.00132e-20 -1.36054e-20 -0.000290869 1.38754e-18 4.08072e-18 -3.92964e-32 0.001415 
4639 1 0.000319678 0.0462251 0.0104176 0 0 0 -2.94302e-18 1.58469e-18 -0.204902 -1.72807e-19 9.30489e-20 -0.000290869 2.69209e-17 4.99965e-17 -7.84737e-32 0.001415 
7349 1 0.0388392 0.0490157 0.0103856 0 0 0 -8.32068e-20 -1.4071e-18 -0.204902 -6.90628e-21 -1.16791e-19 -0.000290869 -1.24765e-16 7.3778e-18 -4.50081e-32 0.001415 
3318 1 0.0108764 -0.0748018 0.0124747 0 0 0 0 0 -0.204902 0 0 -0.000290869 0 0 0 0.001415 
5121 1 -0.0078553 -0.064238 0.0112276 0 0 0 -9.72609e-19 -3.42355e-19 -0.204902 -8.17618e-20 -2.87799e-20 -0.000290869 -5.73946e-17 1.63054e-16 1.64063e-30 0.001415 
6407 1 -0.0157638 -0.0542001 0.012097 0 0 0 -2.95076e-18 8.60263e-19 -0.204902 -1.73213e-19 5.04984e-20 -0.000290869 -1.1236e-17 -3.85404e-17 -1.09017e-31 0.001415 
4748 1 -0.0463698 -0.05198 0.0128471 0 0 0 6.06457e-18 -8.86709e-19 -0.204902 3.08691e-19 -4.51342e-20 -0.000290869 -6.04368e-17 -4.13352e-16 8.0654e-31 0.001415 
8903 1 0.00719176 -0.0530399 0.0126228 0 0 0 -2.11679e-19 1.78709e-18 -0.204902 -1.90582e-20 1.60898e-19 -0.000290869 -1.43765e-16 -1.70287e-17 1.08916e-30 0.001415 
8421 1 -0.0125515 -0.050364 0.0123002 0 0 0 0 0 -0.204902 0 0 -0.000290869 0 0 0 0.001415 
5040 1 0.0412118 -0.051077 0.0118773 0 0 0 0 0 -0.204902 0 0 -0.000290869 0 0 0 0.001415 
9218 1 -0.0344149 -0.0491301 0.0113841 0 0 0 -6.38294e-19 1.65221e-18 -0.204902 -5.6653e-20 1.46645e-19 -0.000290869 -9.44687e-17 -3.6496e-17 1.7542e-30 0.001415 
8294 1 0.0417911 -0.0460756 0.0116454 0 0 0 0 0 -0.204902 0 0 -0.000290869 0 0 0 0.001415 
8781 1 0.0111727 -0.0390904 0.0112905 0 0 0 -5.2475e-18 -2.39388e-18 -0.204902 -3.058e-19 -1.39504e-19 -0.000290869 -8.00711e-17 1.7552e-16 -3.66859e-32 0.001415 
7141 1 -0.0440609 -0.0300013 0.0128378 0 0 0 0 0 -0.204902 0 0 -0.000290869 0 0 0 0.001415 
6550 1 -0.00716818 -0.0295154 0.0124561 0 0 0 -8.93631e-19 1.44837e-19 -0.204902 -5.25541e-20 8.51779e-21 -0.000290869 -6.51714e-19 -4.02103e-18 4.48889e-33 0.001415 
9788 1 -0.0191042 -0.0222982 0.0126898 0 0 0 7.82378e-19 9.72862e-19 -0.204902 1.55739e-20 1.93656e-20 -0.000290869 1.29225e-16 -1.03923e-16 4.12344e-32 0.001415 
1405 1 0.0162037 -0.0193109 0.0125455 0 0 0 -3.92877e-18 -1.14937e-18 -0.204902 -2.88509e-19 -8.44039e-20 -0.000290869 1.37951e-17 -4.71544e-17 3.31154e-31 0.001415 
8819 1 0.00974619 -0.0192248 0.0127206 0 0 0 1.82026e-19 5.59855e-18 -0.204902 1.28281e-20 3.94553e-19 -0.000290869 5.93606e-17 -1.92999e-18 -1.2239e-30 0.001415 
4472 1 -0.0211077 -0.0159411 0.0127951 0 0 0 -2.40119e-18 8.20796e-18 -0.204902 -1.58506e-19 5.41819e-19 -0.000290869 -3.3799e-16 -9.88772e-17 6.36871e-31 0.001415 
4389 1 -0.00210167 -0.0164576 0.0114872 0 0 0 2.44535e-19 -1.19208e-19 -0.204902 3.14189e-20 -1.53164e-20 -0.000290869 -6.24895e-17 -1.28187e-16 -2.19915e-31 0.001415 
2098 1 -0.0163785 -0.0113032 0.0123085 0 0 0 -1.21517e-18 -2.2048e-19 -0.204902 -7.17694e-20 -1.30218e-20 -0.000290869 1.40818e-18 -7.76119e-18 9.68347e-33 0.001415 
4518 1 0.00403554 -0.00678852 0.0110391 0 0 0 -2.88243e-18 3.44104e-18 -0.204902 -2.02431e-19 2.41662e-19 -0.000290869 -1.3511e-17 -1.13176e-17 -3.48044e-30 0.001415 
9888 1 -0.0548111 -0.00420847 0.0110817 0 0 0 4.25628e-19 -5.31602e-19 -0.204902 4.07261e-20 -5.08663e-20 -0.000290869 -1.39411e-16 -1.1162e-16 -6.80303e-31 0.001415 
3527 1 0.053278 -0.000195356 0.0119486 0 0 0 3.3014e-18 1.50147e-18 -0.204902 1.93697e-19 8.80935e-20 -0.000290869 -2.2486e-17 4.94416e-17 1.1868e-31 0.001415 
4852 1 -0.0576017 0.00160357 0.0127096 0 0 0 1.0089e-18 1.6554e-18 -0.204902 8.83196e-20 1.44914e-19 -0.000290869 -1.45462e-17 8.86535e-18 2.08482e-30 0.001415 
2456 1 0.0231999 0.00341526 0.0128773 0 0 0 -5.72011e-17 3.59723e-17 -0.204902 -4.47544e-18 2.81448e-18 -0.000290869 -9.52116e-17 -1.514e-16 -1.29468e-30 0.001415 
1470 1 -0.0541433 0.00552442 0.0113293 0 0 0 3.09734e-18 2.98476e-18 -0.204902 2.32146e-19 2.23708e-19 -0.000290869 -1.06916e-16 1.10948e-16 -1.0613e-30 0.001415 
7478 1 0.0063252 0.00556124 0.0111755 0 0 0 0 0 -0.204902 0 0 -0.000290869 0 0 0 0.001415 
5545 1 -0.0302182 0.00727945 0.0114696 0 0 0 0 0 -0.204902 0 0 -0.000290869 0 0 0 0.001415 
4367 1 0.0426483 0.0117219 0.0113753 0 0 0 -9.34454e-19 8.42945e-19 -0.204902 -8.84627e-20 7.97998e-20 -0.000290869 9.70903e-17 1.0763e-16 1.26499e-30 0.001415 
4345 1 0.0473197 0.0133822 0.0118108 0 0 0 2.05931e-18 7.23806e-19 -0.204902 1.20979e-19 4.25218e-20 -0.000290869 -8.22754e-18 2.34082e-17 -1.5641e-32 0.001415 
9994 1 -0.0272948 0.0197145 0.0117748 0 0 0 -2.974e-18 -2.84105e-18 -0.204902 -2.14607e-19 -2.05013e-19 -0.000290869 1.1816e-16 -1.2369e-16 2.19136e-30 0.001415 
1279 1 -0.00741294 0.0227247 0.012651 0 0 0 -3.58735e-18 -1.32886e-18 -0.204902 -2.56425e-19 -9.49874e-20 -0.000290869 -8.45236e-17 2.28177e-16 1.11586e-31 0.001415 
2812 1 0.0619348 0.0249338 0.0113278 0 0 0 1.00906e-19 5.11987e-19 -0.204902 1.62301e-20 8.23501e-20 -0.000290869 2.03489e-16 -4.0105e-17 -2.12662e-30 0.001415 
4219 1 0.00713294 0.0263879 0.0111374 0 0 0 6.98584e-20 -5.16299e-19 -0.204902 1.13033e-20 -8.35388e-20 -0.000290869 -6.40236e-17 -8.66278e-18 1.36435e-31 0.001415 
3552 1 0.038076 0.0255707 0.0118141 0 0 0 -8.83485e-20 5.16847e-19 -0.204902 -1.0866e-20 6.35669e-20 -0.000290869 -1.08383e-16 -1.85267e-17 1.41048e-30 0.001415 
9955 1 0.0480973 0.0295036 0.0121095 0 0 0 0 0 -0.204902 0 0 -0.000290869 0 0 0 0.001415 
6216 1 -0.023401 0.0310553 0.0112068 0 0 0 -4.9437e-19 -2.2986e-18 -0.204902 -2.91182e-20 -1.35387e-19 -0.000290869 -2.2259e-17 4.78734e-18 -5.69009e-32 0.001415 
8775 1 0.0134757 0.0326995 0.0116928 0 0 0 6.14071e-20 -1.03346e-19 -0.204902 -3.77026e-21 6.34521e-21 -0.000290869 7.69472e-17 4.57213e-17 -2.21839e-31 0.001415 
7874 1 -0.0157052 0.0360712 0.0114208 0 0 0 -7.88712e-19 -9.32923e-19 -0.204902 -4.63002e-20 -5.47658e-20 -0.000290869 1.66062e-17 -1.40392e-17 -2.45678e-32 0.001415 
4099 1 0.0465216 0.0422608 0.0126877 0 0 0 -6.78202e-19 2.30604e-19 -0.204902 -4.0012e-20 1.36049e-20 -0.000290869 2.90834e-18 8.5534e-18 -3.78344e-32 0.001415 
9746 1 -0.0326219 0.0429159 0.0123004 0 0 0 3.87716e-19 -2.49703e-18 -0.204902 3.21777e-20 -2.07236e-19 -0.000290869 1.54995e-16 2.40662e-17 -2.99563e-31 0.001415 
486 1 0.0131757 0.0431015 0.0122849 0 0 0 5.0775e-18 -4.30368e-18 -0.204902 3.42792e-19 -2.9055e-19 -0.000290869 2.70135e-16 3.18706e-16 2.29811e-30 0.001415 
8316 1 0.0241447 0.055508 0.0128525 0 0 0 0 0 -0.204902 0 0 -0.000290869 0 0 0 0.001415 
6048 1 -0.0014895 0.0671831 0.0117001 0 0 0 -2.18179e-18 -1.31108e-19 -0.204902 -1.87149e-19 -1.12462e-20 -0.000290869 1.08498e-18 -1.80553e-17 -2.95973e-31 0.001415 
3317 1 0.00879117 -0.0741345 0.0142679 0 0 0 1.53629e-16 -4.91634e-17 -0.204902 1.20667e-17 -3.8615e-18 -0.000290869 -1.83885e-16 -5.74616e-16 3.6756e-30 0.001415 
4537 1 0.0348065 -0.0668743 0.0142458 0 0 0 5.00752e-17 -9.75182e-17 -0.204902 3.88916e-18 -7.57387e-18 -0.000290869 6.26021e-16 3.2146e-16 -3.40009e-31 0.001415 
5120 1 -0.00732864 -0.0640527 0.014002 0 0 0 -6.11998e-17 -2.15421e-17 -0.204902 -4.79198e-18 -1.68676e-18 -0.000290869 1.03484e-16 -2.93991e-16 2.09122e-30 0.001415 
4749 1 -0.0443437 -0.0522762 0.0148005 0 0 0 -1.11267e-16 1.62685e-17 -0.204902 -8.83274e-18 1.29145e-18 -0.000290869 1.11283e-16 7.61108e-16 2.28585e-30 0.001415 
6408 1 -0.0176936 -0.0536375 0.0140891 0 0 0 1.65182e-16 -4.8157e-17 -0.204902 1.30715e-17 -3.81086e-18 -0.000290869 -2.04772e-16 -7.02384e-16 7.58558e-30 0.001415 
9217 1 -0.0337766 -0.0507822 0.0135913 0 0 0 -5.19218e-17 1.34398e-16 -0.204902 -4.05421e-18 1.04942e-17 -0.000290869 6.16716e-16 2.38255e-16 4.5284e-30 0.001415 
5039 1 0.0393096 -0.0515993 0.0139065 0 0 0 1.4899e-16 4.09097e-17 -0.204902 1.16326e-17 3.19409e-18 -0.000290869 2.43961e-16 -8.88489e-16 -2.94195e-30 0.001415 
8420 1 -0.0130316 -0.0490822 0.0147772 0 0 0 4.94851e-17 -1.32135e-16 -0.204902 3.86037e-18 -1.0308e-17 -0.000290869 -2.93626e-16 -1.09964e-16 -4.43143e-30 0.001415 
8293 1 0.0410995 -0.0444363 0.0138461 0 0 0 6.53737e-17 -1.54948e-16 -0.204902 5.15913e-18 -1.22281e-17 -0.000290869 -1.19892e-15 -5.05836e-16 3.83156e-30 0.001415 
8782 1 0.00995582 -0.0396456 0.0137844 0 0 0 1.10969e-16 5.06233e-17 -0.204902 8.65337e-18 3.94762e-18 -0.000290869 2.66522e-16 -5.8423e-16 2.01001e-30 0.001415 
164 1 0.0235073 -0.0400101 0.0129854 0 0 0 4.09059e-18 5.45994e-17 -0.204902 3.2241e-19 4.30338e-18 -0.000290869 -3.59853e-16 2.69603e-17 7.99599e-31 0.001415 
1765 1 -0.00582286 -0.0341936 0.0145393 0 0 0 1.26799e-16 -3.96802e-17 -0.204902 9.87334e-18 -3.08974e-18 -0.000290869 -2.70128e-16 -8.63201e-16 -2.97664e-30 0.001415 
2898 1 -0.0015393 -0.0260351 0.0148115 0 0 0 9.33384e-17 -1.84259e-17 -0.204902 7.32604e-18 -1.44623e-18 -0.000290869 8.48298e-17 4.29715e-16 -3.08198e-31 0.001415 
1113 1 0.057839 -0.0250229 0.0136681 0 0 0 1.39494e-16 7.1567e-17 -0.204902 1.10576e-17 5.67304e-18 -0.000290869 3.19304e-16 -6.2237e-16 -8.78423e-30 0.001415 
2604 1 -0.0264828 -0.0239558 0.014536 0 0 0 1.30595e-16 -5.68605e-18 -0.204902 1.03506e-17 -4.50659e-19 -0.000290869 -3.21446e-17 -7.38287e-16 9.58736e-31 0.001415 
8818 1 0.00968245 -0.0211851 0.0147607 0 0 0 4.59408e-18 1.413e-16 -0.204902 3.56224e-19 1.09563e-17 -0.000290869 8.62283e-16 -2.80355e-17 -1.54758e-30 0.001415 
3530 1 0.0663652 -0.0174708 0.0136178 0 0 0 8.91198e-17 1.09457e-16 -0.204902 6.99452e-18 8.59065e-18 -0.000290869 -3.77846e-16 3.07643e-16 4.88111e-30 0.001415 
8587 1 -0.0404076 -0.0166605 0.0129878 0 0 0 7.21035e-18 -9.52224e-17 -0.204902 6.49925e-19 -8.58313e-18 -0.000290869 4.38009e-16 3.31666e-17 4.8985e-31 0.001415 
4388 1 -0.00265555 -0.0161876 0.0142493 0 0 0 6.23706e-17 -3.04049e-17 -0.204902 4.89554e-18 -2.38652e-18 -0.000290869 1.15946e-16 2.37844e-16 -6.29138e-31 0.001415 
2097 1 -0.0180782 -0.0116116 0.01455 0 0 0 1.5178e-16 2.75389e-17 -0.204902 1.18928e-17 2.15783e-18 -0.000290869 2.04202e-16 -1.12546e-15 -3.15942e-30 0.001415 
5436 1 0.0238697 -0.0121851 0.0129103 0 0 0 -1.27855e-18 2.42943e-18 -0.204902 -5.08109e-20 9.65482e-20 -0.000290869 -2.96872e-17 -1.56236e-17 -8.58996e-31 0.001415 
4519 1 0.0050482 -0.00799743 0.0133889 0 0 0 -7.10393e-17 8.48067e-17 -0.204902 -5.55273e-18 6.62884e-18 -0.000290869 3.52702e-16 2.95445e-16 -4.8921e-30 0.001415 
9887 1 -0.0551901 -0.00373509 0.013846 0 0 0 4.38643e-17 -5.47859e-17 -0.204902 3.42259e-18 -4.27475e-18 -0.000290869 2.99978e-16 2.40177e-16 -1.41636e-30 0.001415 
4853 1 -0.0586257 -7.65915e-05 0.0147436 0 0 0 7.8848e-17 1.29373e-16 -0.204902 6.16826e-18 1.01208e-17 -0.000290869 3.65855e-16 -2.22975e-16 -4.40506e-31 0.001415 
9744 1 -0.0476714 0.00124731 0.0136302 0 0 0 3.83279e-19 4.36587e-19 -0.204902 4.05582e-20 4.61991e-20 -0.000290869 5.00371e-18 -4.39275e-18 -4.03985e-31 0.001415 
3403 1 0.0399954 0.00144601 0.0137652 0 0 0 -1.28182e-16 6.06583e-18 -0.204902 -1.00091e-17 4.73654e-19 -0.000290869 3.14807e-17 6.65242e-16 9.84824e-31 0.001415 
3526 1 0.0549212 0.000551996 0.0141281 0 0 0 -1.53917e-16 -7.00014e-17 -0.204902 -1.20617e-17 -5.48568e-18 -0.000290869 -5.32624e-16 1.17112e-15 -1.75607e-29 0.001415 
3843 1 -0.0432547 0.00201405 0.0143506 0 0 0 1.22138e-16 8.32202e-17 -0.204902 9.53658e-18 6.49787e-18 -0.000290869 4.6023e-16 -6.75455e-16 -5.18006e-30 0.001415 
6238 1 0.0476834 0.00358837 0.0138861 0 0 0 1.58085e-16 -1.01714e-16 -0.204902 1.24251e-17 -7.99454e-18 -0.000290869 -2.10635e-16 -3.2737e-16 9.37215e-30 0.001415 
1469 1 -0.0554428 0.00427207 0.0135091 0 0 0 1.13596e-16 1.09467e-16 -0.204902 8.86322e-18 8.54107e-18 -0.000290869 6.32347e-16 -6.56198e-16 1.72992e-30 0.001415 
7479 1 0.00708078 0.00479504 0.0137929 0 0 0 -8.19874e-17 8.31403e-17 -0.204902 -6.44057e-18 6.53114e-18 -0.000290869 -2.29928e-16 -2.26739e-16 -5.30535e-30 0.001415 
6444 1 -0.0485008 0.00805 0.0131995 0 0 0 -8.66661e-19 1.0558e-18 -0.204902 -1.07489e-19 1.30946e-19 -0.000290869 -1.84303e-16 -1.51287e-16 -4.29741e-31 0.001415 
5546 1 -0.0286421 0.00814112 0.0136565 0 0 0 -1.56769e-16 -8.57081e-17 -0.204902 -1.23037e-17 -6.7266e-18 -0.000290869 -7.42364e-16 1.35786e-15 -9.0579e-30 0.001415 
7897 1 0.0202104 0.0106666 0.0130524 0 0 0 7.83247e-19 3.73343e-18 -0.204902 5.88041e-20 2.80296e-19 -0.000290869 1.09303e-16 -2.29311e-17 3.97514e-31 0.001415 
4366 1 0.0434972 0.010956 0.013964 0 0 0 -9.335e-17 8.42085e-17 -0.204902 -7.35743e-18 6.63693e-18 -0.000290869 -1.1796e-16 -1.30766e-16 -4.32267e-30 0.001415 
4430 1 -0.0607358 0.0123237 0.0133372 0 0 0 -1.1051e-16 2.36075e-17 -0.204902 -8.75631e-18 1.87054e-18 -0.000290869 6.74503e-17 3.15745e-16 6.1025e-31 0.001415 
5821 1 0.071151 0.0126674 0.0130396 0 0 0 -1.65871e-18 1.59429e-18 -0.204902 -9.73701e-20 9.35889e-20 -0.000290869 -2.50553e-17 -2.60676e-17 1.61248e-32 0.001415 
4344 1 0.0486622 0.0138541 0.014257 0 0 0 -1.38689e-16 -4.87466e-17 -0.204902 -1.07953e-17 -3.79433e-18 -0.000290869 -9.62229e-17 2.73765e-16 1.49767e-30 0.001415 
5629 1 -0.00809486 0.0186934 0.0141303 0 0 0 1.35309e-16 2.36704e-18 -0.204902 1.05928e-17 1.85307e-19 -0.000290869 1.98311e-17 -1.13362e-15 -3.58213e-31 0.001415 
9993 1 -0.0262716 0.020692 0.0142257 0 0 0 -8.60222e-17 -8.21768e-17 -0.204902 -6.71551e-18 -6.41531e-18 -0.000290869 -6.11722e-16 6.40347e-16 1.31764e-30 0.001415 
3553 1 0.038325 0.0241144 0.0142279 0 0 0 -2.02934e-17 1.18719e-16 -0.204902 -1.59177e-18 9.31203e-18 -0.000290869 7.9517e-16 1.35924e-16 1.24899e-30 0.001415 
2811 1 0.0616855 0.0236687 0.013847 0 0 0 2.68377e-17 1.36172e-16 -0.204902 2.09287e-18 1.06191e-17 -0.000290869 -3.21254e-16 6.33149e-17 -2.60907e-30 0.001415 
4218 1 0.00694369 0.0277865 0.0135903 0 0 0 1.72558e-17 -1.27531e-16 -0.204902 1.34041e-18 -9.90646e-18 -0.000290869 -5.891e-16 -7.97088e-17 -5.52685e-31 0.001415 
9956 1 0.047731 0.0274693 0.0140425 0 0 0 2.68105e-17 1.489e-16 -0.204902 2.12009e-18 1.17745e-17 -0.000290869 7.37409e-16 -1.32776e-16 -2.41632e-30 0.001415 
6007 1 0.0347873 0.0296881 0.0138123 0 0 0 4.07371e-17 4.56449e-17 -0.204902 3.16573e-18 3.54712e-18 -0.000290869 -2.71394e-16 2.42213e-16 1.15996e-30 0.001415 
8774 1 0.0137081 0.0323084 0.014486 0 0 0 -2.73205e-17 4.59794e-17 -0.204902 -2.13911e-18 3.60004e-18 -0.000290869 -2.55445e-16 -1.51783e-16 3.92912e-31 0.001415 
6215 1 -0.0229502 0.0331509 0.0130545 0 0 0 2.23433e-19 1.03887e-18 -0.204902 3.17761e-21 1.47745e-20 -0.000290869 1.81321e-16 -3.89975e-17 -1.12042e-30 0.001415 
3967 1 -0.0257836 0.0351781 0.013266 0 0 0 -4.58252e-17 1.43363e-16 -0.204902 -3.58505e-18 1.12157e-17 -0.000290869 1.82385e-16 5.82986e-17 6.20433e-30 0.001415 
7873 1 -0.0162209 0.0354611 0.0141357 0 0 0 5.95736e-17 7.04663e-17 -0.204902 4.71547e-18 5.57767e-18 -0.000290869 -6.38837e-16 5.40086e-16 2.23221e-31 0.001415 
6847 1 -0.0500743 0.0395872 0.0142923 0 0 0 -1.49031e-16 6.42802e-17 -0.204902 -1.16561e-17 5.02752e-18 -0.000290869 5.45089e-16 1.26376e-15 -1.62956e-30 0.001415 
487 1 0.0121003 0.044013 0.0147388 0 0 0 8.82427e-17 -7.47944e-17 -0.204902 6.94482e-18 -5.88642e-18 -0.000290869 -3.73555e-16 -4.40721e-16 3.8407e-30 0.001415 
9747 1 -0.0328934 0.0446643 0.014509 0 0 0 2.36657e-17 -1.52416e-16 -0.204902 1.86836e-18 -1.20329e-17 -0.000290869 -8.9235e-16 -1.38556e-16 -5.18627e-31 0.001415 
4638 1 0.00148191 0.0455993 0.0129209 0 0 0 2.49501e-18 -1.34345e-18 -0.204902 1.1709e-19 -6.30476e-20 -0.000290869 3.36079e-17 6.24152e-17 -5.16846e-31 0.001415 
7348 1 0.0388741 0.0496065 0.013153 0 0 0 -4.11392e-18 -6.95701e-17 -0.204902 -3.21057e-19 -5.42936e-18 -0.000290869 3.79536e-16 -2.24432e-17 -3.8294e-32 0.001415 
8315 1 0.0261215 0.0546907 0.0147053 0 0 0 -1.49095e-16 6.164e-17 -0.204902 -1.16487e-17 4.81588e-18 -0.000290869 2.86237e-16 6.92351e-16 1.41773e-29 0.001415 
4831 1 0.0293284 0.0560787 0.0133218 0 0 0 1.29261e-16 -7.18553e-17 -0.204902 1.01487e-17 -5.64156e-18 -0.000290869 -4.40363e-16 -7.92174e-16 2.14306e-30 0.001415 
6909 1 0.00964204 0.0590336 0.0133559 0 0 0 1.62066e-17 -9.76489e-18 -0.204902 1.01801e-18 -6.1338e-19 -0.000290869 3.11266e-16 5.16601e-16 9.7673e-31 0.001415 
6047 1 -2.16486e-05 0.0672713 0.014118 0 0 0 -1.5062e-16 -9.05111e-18 -0.204902 -1.17963e-17 -7.08866e-19 -0.000290869 -1.42518e-17 2.37166e-16 2.80518e-31 0.001415 
7455 1 0.00864732 0.0657086 0.0142643 0 0 0 -6.21424e-18 1.47364e-16 -0.204902 -4.86317e-19 1.15325e-17 -0.000290869 6.65955e-16 2.80828e-17 -4.38276e-31 0.001415 
8757 1 0.00829498 0.0765507 0.0137108 0 0 0 0 0 -0.204902 0 0 -0.000290869 0 0 0 0.001415 
3316 1 0.00670592 -0.0734672 0.016061 0 0 0 -1.53629e-16 4.91634e-17 -0.204902 -1.20667e-17 3.8615e-18 -0.000290869 -1.83885e-16 -5.74616e-16 3.6756e-30 0.001415 
2499 1 0.0564696 -0.0568217 0.0162079 0 0 0 1.60018e-18 -3.66108e-18 -0.204902 9.44215e-20 -2.16029e-19 -0.000290869 -2.51853e-17 -1.10079e-17 -6.16051e-32 0.001415 
8902 1 0.00739974 -0.0547957 0.0148325 0 0 0 -1.7983e-17 1.51821e-16 -0.204902 -1.41431e-18 1.19403e-17 -0.000290869 7.654e-16 9.06608e-17 8.70397e-31 0.001415 
4054 1 -0.0359786 -0.0521436 0.0164945 0 0 0 0 0 -0.204902 0 0 -0.000290869 0 0 0 0.001415 
9216 1 -0.0331383 -0.0524344 0.0157986 0 0 0 5.10462e-17 -1.32132e-16 -0.204902 3.99837e-18 -1.03496e-17 -0.000290869 4.55242e-16 1.75873e-16 1.47533e-30 0.001415 
6409 1 -0.0196234 -0.0530749 0.0160811 0 0 0 -1.65182e-16 4.8157e-17 -0.204902 -1.30715e-17 3.81086e-18 -0.000290869 -2.04772e-16 -7.02384e-16 7.58558e-30 0.001415 
5038 1 0.0374074 -0.0521216 0.0159358 0 0 0 -1.37473e-16 -3.77472e-17 -0.204902 -1.08823e-17 -2.98806e-18 -0.000290869 1.20685e-16 -4.39526e-16 1.3824e-30 0.001415 
8292 1 0.0404079 -0.0427971 0.0160469 0 0 0 -6.40506e-17 1.51812e-16 -0.204902 -5.05402e-18 1.1979e-17 -0.000290869 -8.6335e-16 -3.64254e-16 2.59326e-30 0.001415 
163 1 0.0234703 -0.0405039 0.0157717 0 0 0 -4.09084e-18 -5.46026e-17 -0.204902 -3.22393e-19 -4.30315e-18 -0.000290869 -4.03056e-16 3.0197e-17 8.04468e-31 0.001415 
8783 1 0.00873888 -0.0402008 0.0162784 0 0 0 -1.09714e-16 -5.00509e-17 -0.204902 -8.53884e-18 -3.89537e-18 -0.000290869 1.43536e-16 -3.14637e-16 2.41308e-30 0.001415 
1766 1 -0.00794199 -0.0335305 0.0162938 0 0 0 -1.17057e-16 3.66315e-17 -0.204902 -9.24085e-18 2.89181e-18 -0.000290869 -1.84819e-16 -5.90594e-16 9.24661e-31 0.001415 
7142 1 -0.0430179 -0.0310366 0.0152564 0 0 0 -9.87295e-17 9.79988e-17 -0.204902 -7.77938e-18 7.7218e-18 -0.000290869 5.12674e-16 5.16496e-16 3.15428e-30 0.001415 
6549 1 -0.00774795 -0.0294214 0.0152245 0 0 0 7.16036e-17 -1.16053e-17 -0.204902 5.58768e-18 -9.05632e-19 -0.000290869 7.00622e-17 4.32278e-16 -2.59571e-31 0.001415 
1112 1 0.0563793 -0.0257718 0.015974 0 0 0 -1.39494e-16 -7.1567e-17 -0.204902 -1.10576e-17 -5.67304e-18 -0.000290869 3.19304e-16 -6.2237e-16 -8.78423e-30 0.001415 
2603 1 -0.028804 -0.0238547 0.0161518 0 0 0 -1.30595e-16 5.68605e-18 -0.204902 -1.03506e-17 4.50659e-19 -0.000290869 -3.21446e-17 -7.38287e-16 9.58736e-31 0.001415 