ITEM: TIMESTEP
80000
ITEM: NUMBER OF ATOMS
10248
ITEM: BOX BOUNDS ff ff ff
-0.2 0.2
-0.2 0.2
-0.01 0.5
ITEM: ATOMS id type x y z ix iy iz vx vy vz fx fy fz omegax omegay omegaz radius 
5124 1 -0.00943529 -0.0647942 0.00267315 0 0 0 -1.04562e-17 -3.68054e-18 -0.215686 9.41005e-24 3.31231e-24 -0.000290855 2.41023e-16 -6.84731e-16 1.33821e-32 0.001415 
168 1 0.0236553 -0.0380352 0.00160864 0 0 0 7.42413e-18 9.90939e-17 -0.215686 1.71544e-19 2.28969e-18 -0.000290855 5.26585e-16 -3.94518e-17 -5.88798e-31 0.001415 
9891 1 -0.0536741 -0.00562861 0.00255762 0 0 0 6.91714e-18 -8.6394e-18 -0.215686 -6.22509e-24 7.77504e-24 -0.000290855 6.56018e-16 5.25241e-16 -2.86258e-31 0.001415 
8778 1 0.0127785 0.033873 0.00308193 0 0 0 -4.16813e-18 7.0148e-18 -0.215686 3.75111e-24 -6.31298e-24 -0.000290855 -4.39571e-16 -2.61189e-16 3.60361e-31 0.001415 
167 1 0.0236183 -0.0385289 0.00439499 0 0 0 -6.62768e-18 -8.84633e-17 -0.215686 -1.54218e-19 -2.05844e-18 -0.000290855 5.26665e-16 -3.94578e-17 3.25225e-30 0.001415 
5439 1 0.0255064 -0.015295 0.00495049 0 0 0 6.69761e-19 -1.27265e-18 -0.215686 -6.02752e-25 1.14532e-24 -0.000290855 -5.23927e-18 -2.75729e-18 2.22106e-33 0.001415 
4096 1 0.0493328 0.0413049 0.0045025 0 0 0 7.44187e-18 -2.5304e-18 -0.215686 1.3258e-19 -4.50801e-20 -0.000290855 -1.321e-16 -3.88504e-16 5.15586e-31 0.001415 
5123 1 -0.00890863 -0.0646088 0.00544752 0 0 0 9.51978e-18 3.35093e-18 -0.215686 -8.56734e-24 -3.01568e-24 -0.000290855 2.39574e-16 -6.80613e-16 1.61865e-32 0.001415 
8779 1 0.0136066 -0.0379801 0.00607128 0 0 0 1.14883e-19 5.2409e-20 -0.215686 -1.03389e-25 -4.71656e-26 -0.000290855 -4.07831e-19 8.93986e-19 -5.00781e-34 0.001415 
6552 1 -0.00600865 -0.0297033 0.00668804 0 0 0 7.94171e-19 -1.28716e-19 -0.215686 -7.14715e-25 1.15839e-25 -0.000290855 -4.68494e-19 -2.89058e-18 -2.04103e-34 0.001415 
9890 1 -0.0540531 -0.00515523 0.00532188 0 0 0 -6.00511e-18 7.50028e-18 -0.215686 5.40431e-24 -6.74989e-24 -0.000290855 6.5001e-16 5.20431e-16 -2.86578e-31 0.001415 
4516 1 0.00201022 -0.00437069 0.00610797 0 0 0 -1.07233e-18 1.28014e-18 -0.215686 9.65043e-25 -1.15207e-24 -0.000290855 4.69471e-18 3.93258e-18 -1.24819e-32 0.001415 
5818 1 0.0744051 0.00953964 0.00561742 0 0 0 2.36867e-19 -2.27668e-19 -0.215686 -2.13169e-25 2.04891e-25 -0.000290855 -2.53193e-19 -2.63423e-19 -1.7179e-34 0.001415 
6447 1 -0.0515136 0.0117203 0.00593035 0 0 0 -1.10177e-18 1.34221e-18 -0.215686 9.91535e-25 -1.20792e-24 -0.000290855 4.42257e-18 3.63031e-18 -1.38197e-32 0.001415 
4347 1 0.0446345 0.0124385 0.00668713 0 0 0 -7.28298e-19 -2.55982e-19 -0.215686 6.55432e-25 2.30372e-25 -0.000290855 -2.68514e-19 7.63952e-19 -3.25099e-35 0.001415 
9996 1 -0.0293411 0.0177597 0.00664179 0 0 0 -1.7526e-18 -1.67425e-18 -0.215686 1.57726e-24 1.50675e-24 -0.000290855 -7.58349e-18 7.93836e-18 1.0777e-32 0.001415 
4221 1 0.00751144 0.0235905 0.00600022 0 0 0 3.08444e-20 -2.2796e-19 -0.215686 -2.77584e-26 2.05153e-25 -0.000290855 4.14647e-19 5.61043e-20 1.08554e-34 0.001415 
3550 1 0.0375782 0.0284832 0.00675528 0 0 0 -1.07715e-18 6.30142e-18 -0.215686 9.69381e-25 -5.67097e-24 -0.000290855 3.71278e-17 6.34654e-18 -1.16604e-32 0.001415 
2814 1 0.0624335 0.0274639 0.00605814 0 0 0 1.42418e-19 7.22618e-19 -0.215686 -1.28169e-25 -6.50321e-25 -0.000290855 1.17363e-18 -2.31307e-19 1.95776e-33 0.001415 
8777 1 0.0130109 0.0334818 0.00587511 0 0 0 3.96834e-18 -6.67857e-18 -0.215686 -3.57131e-24 6.01038e-24 -0.000290855 -4.38798e-16 -2.6073e-16 3.6024e-31 0.001415 
4641 1 -0.00200478 0.0474767 0.00517969 0 0 0 -2.10646e-18 1.13424e-18 -0.215686 1.89572e-24 -1.02076e-24 -0.000290855 5.34882e-18 9.93361e-18 -2.46544e-33 0.001415 
5122 1 -0.00838197 -0.0644234 0.0082219 0 0 0 6.17148e-19 2.17234e-19 -0.215686 -7.80227e-21 -2.74637e-21 -0.000290855 5.15346e-17 -1.46406e-16 -1.04629e-30 0.001415 
8780 1 0.0123897 -0.0385353 0.00856523 0 0 0 1.62859e-17 7.42952e-18 -0.215686 2.95089e-19 1.34618e-19 -0.000290855 -1.33682e-15 2.93038e-15 2.12914e-30 0.001415 
166 1 0.0235813 -0.0390227 0.00718134 0 0 0 -7.40227e-19 -9.88021e-18 -0.215686 -1.73258e-20 -2.31256e-19 -0.000290855 1.34348e-18 -1.00654e-19 3.84095e-30 0.001415 
1407 1 0.0135434 -0.0200891 0.00737938 0 0 0 -6.80109e-19 -1.98967e-19 -0.215686 6.12065e-25 1.79061e-25 -0.000290855 -4.80077e-19 1.641e-18 -6.54893e-34 0.001415 
8589 1 -0.0402517 -0.0187189 0.00748634 0 0 0 5.78201e-20 -7.63592e-19 -0.215686 -5.20352e-26 6.87196e-25 -0.000290855 3.63287e-18 2.75085e-19 -1.53633e-32 0.001415 
5438 1 0.0249608 -0.0142584 0.00752667 0 0 0 4.215e-18 -8.00913e-18 -0.215686 3.38708e-19 -6.43597e-19 -0.000290855 -8.25824e-16 -4.3461e-16 3.66791e-32 0.001415 
2100 1 -0.012979 -0.0106864 0.00759399 0 0 0 6.88795e-18 1.24974e-18 -0.215686 4.33516e-19 7.86568e-20 -0.000290855 7.47583e-18 -4.1203e-17 1.49736e-31 0.001415 
9889 1 -0.0544321 -0.00468185 0.00808615 0 0 0 -9.12035e-19 1.13912e-18 -0.215686 8.20787e-25 -1.02515e-24 -0.000290855 -6.00736e-18 -4.8098e-18 -3.20213e-34 0.001415 
4517 1 0.00302288 -0.0055796 0.00845785 0 0 0 1.07233e-18 -1.28014e-18 -0.215686 -9.65043e-25 1.15207e-24 -0.000290855 4.69471e-18 3.93258e-18 -1.24819e-32 0.001415 
7477 1 0.00556963 0.00632744 0.00832675 0 0 0 0 0 -0.215686 0 0 -0.000290855 0 0 0 0.001415 
6446 1 -0.0505093 0.0104969 0.00827631 0 0 0 -1.20333e-18 1.46593e-18 -0.215686 -4.21222e-20 5.13147e-20 -0.000290855 9.96173e-18 8.17718e-18 2.96968e-31 0.001415 
5819 1 0.0733204 0.0105822 0.00801436 0 0 0 -2.36867e-19 2.27668e-19 -0.215686 2.13169e-25 -2.04891e-25 -0.000290855 -2.53193e-19 -2.63423e-19 -1.7179e-34 0.001415 
4368 1 0.0417993 0.0124877 0.00855516 0 0 0 0 0 -0.215686 0 0 -0.000290855 0 0 0 0.001415 
1281 1 -0.00910888 0.0220965 0.00705637 0 0 0 -7.20054e-19 -2.6673e-19 -0.215686 6.48014e-25 2.40044e-25 -0.000290855 -8.98016e-19 2.42426e-18 -9.39155e-34 0.001415 
4220 1 0.00732219 0.0249892 0.00845313 0 0 0 8.99878e-19 -6.65068e-18 -0.215686 1.73294e-20 -1.28075e-19 -0.000290855 -6.58688e-17 -8.91245e-18 2.44783e-31 0.001415 
2813 1 0.0621842 0.0261988 0.00857733 0 0 0 7.48276e-19 3.79669e-18 -0.215686 1.68833e-20 8.56644e-20 -0.000290855 -7.09175e-17 1.39769e-17 -7.10088e-32 0.001415 
8776 1 0.0132433 0.0330907 0.0086683 0 0 0 -3.412e-19 5.74228e-19 -0.215686 -1.0277e-20 1.72958e-20 -0.000290855 -1.96176e-17 -1.16566e-17 2.02172e-31 0.001415 
3969 1 -0.0266131 0.0377733 0.00807361 0 0 0 -9.21285e-18 2.88221e-17 -0.215686 -1.64333e-19 5.1411e-19 -0.000290855 -2.5936e-15 -8.29032e-16 2.25558e-30 0.001415 
7875 1 -0.0151895 0.0366812 0.00847454 0 0 0 2.4629e-18 2.91323e-18 -0.215686 4.39887e-20 5.20318e-20 -0.000290855 1.75728e-16 -1.48564e-16 -2.06632e-31 0.001415 
484 1 0.0153265 0.0412785 0.00714579 0 0 0 2.85385e-18 -2.41892e-18 -0.215686 -2.56833e-24 2.17691e-24 -0.000290855 -1.26417e-17 -1.49147e-17 1.11465e-32 0.001415 
4097 1 0.0483957 0.0416236 0.00715379 0 0 0 -5.9823e-18 2.03411e-18 -0.215686 -1.32581e-19 4.50805e-20 -0.000290855 -1.33621e-16 -3.92976e-16 5.14124e-31 0.001415 
4640 1 -0.000842548 0.0468509 0.00768299 0 0 0 -1.57318e-17 8.4709e-18 -0.215686 -1.78387e-18 9.60533e-19 -0.000290855 6.05713e-18 1.12491e-17 -7.63273e-32 0.001415 
7350 1 0.0388042 0.0484249 0.00738686 0 0 0 -4.44038e-21 -7.50909e-20 -0.215686 3.99613e-27 6.75782e-26 -0.000290855 2.59564e-19 -1.53489e-20 3.6727e-36 0.001415 
6406 1 -0.013834 -0.0547628 0.00987363 0 0 0 9.21787e-18 -2.68737e-18 -0.215686 1.64838e-19 -4.80568e-20 -0.000290855 -1.18913e-16 -4.0788e-16 -1.05083e-30 0.001415 
4747 1 -0.048396 -0.0516837 0.0106624 0 0 0 -2.74171e-17 4.00869e-18 -0.215686 -4.9288e-19 7.20648e-20 -0.000290855 -1.70207e-16 -1.16412e-15 -4.95253e-31 0.001415 
8904 1 0.00698378 -0.051284 0.0101818 0 0 0 0 0 -0.215686 0 0 -0.000290855 0 0 0 0.001415 
9219 1 -0.0350531 -0.0474779 0.00894552 0 0 0 0 0 -0.215686 0 0 -0.000290855 0 0 0 0.001415 
8295 1 0.0424827 -0.0477148 0.00921323 0 0 0 0 0 -0.215686 0 0 -0.000290855 0 0 0 0.001415 
165 1 0.0235443 -0.0395164 0.00996769 0 0 0 1.33886e-19 1.78705e-18 -0.215686 7.20681e-21 9.61932e-20 -0.000290855 1.48453e-16 -1.11221e-17 8.97031e-30 0.001415 
6551 1 -0.00658842 -0.0296093 0.00945643 0 0 0 2.00088e-18 -3.24296e-19 -0.215686 4.99838e-20 -8.1012e-21 -0.000290855 -2.06469e-17 -1.2739e-16 4.99986e-34 0.001415 
9787 1 -0.0202299 -0.023698 0.0102716 0 0 0 -3.88785e-18 -4.83442e-18 -0.215686 -7.08278e-20 -8.80721e-20 -0.000290855 -1.88754e-16 1.51797e-16 -1.18828e-30 0.001415 
1406 1 0.0148736 -0.0197 0.0098468 0 0 0 6.80109e-19 1.98967e-19 -0.215686 -6.12065e-25 -1.79061e-25 -0.000290855 -4.80077e-19 1.641e-18 -6.54893e-34 0.001415 
8588 1 -0.0403296 -0.0176897 0.0101214 0 0 0 2.72148e-18 -3.59407e-17 -0.215686 6.44304e-20 -8.5089e-19 -0.000290855 3.05231e-15 2.31125e-16 2.04365e-29 0.001415 
8820 1 0.00980992 -0.0172644 0.0104492 0 0 0 0 0 -0.215686 0 0 -0.000290855 0 0 0 0.001415 
3529 1 0.0670132 -0.0166749 0.0107492 0 0 0 0 0 -0.215686 0 0 -0.000290855 0 0 0 0.001415 
4473 1 -0.0215554 -0.0144106 0.0102259 0 0 0 0 0 -0.215686 0 0 -0.000290855 0 0 0 0.001415 
5437 1 0.0244153 -0.0132218 0.0101028 0 0 0 2.61877e-18 -4.97605e-18 -0.215686 -1.98777e-19 3.77707e-19 -0.000290855 5.26291e-16 2.76973e-16 1.80705e-30 0.001415 
2099 1 -0.0146787 -0.0109948 0.00983557 0 0 0 -3.04674e-18 -5.52798e-19 -0.215686 -3.61628e-19 -6.56135e-20 -0.000290855 2.40522e-17 -1.32564e-16 7.82446e-32 0.001415 
3528 1 0.0516347 -0.000942708 0.00953784 0 0 0 -1.03002e-17 -4.68453e-18 -0.215686 -1.83804e-19 -8.35941e-20 -0.000290855 -2.38215e-16 5.23779e-16 4.74338e-32 0.001415 
2457 1 0.0227749 0.00368251 0.00986082 0 0 0 0 0 -0.215686 0 0 -0.000290855 0 0 0 0.001415 
6445 1 -0.0495051 0.00927345 0.0106223 0 0 0 -6.68641e-20 8.14562e-20 -0.215686 -3.97403e-21 4.8413e-21 -0.000290855 -9.10121e-17 -7.47082e-17 1.52024e-30 0.001415 
4431 1 -0.0620527 0.012605 0.0106168 0 0 0 -2.09363e-17 4.47246e-18 -0.215686 -5.44009e-19 1.16212e-19 -0.000290855 -6.03651e-16 -2.82578e-15 -2.63152e-29 0.001415 
4346 1 0.0459771 0.0129104 0.0091333 0 0 0 -5.70749e-18 -2.00607e-18 -0.215686 -1.15061e-19 -4.04415e-20 -0.000290855 -1.09831e-16 3.1248e-16 -5.65433e-31 0.001415 
5820 1 0.0722357 0.0116248 0.0104113 0 0 0 5.18058e-18 -4.9794e-18 -0.215686 9.25822e-20 -8.8987e-20 -0.000290855 -2.65151e-16 -2.75863e-16 -2.37366e-30 0.001415 
9995 1 -0.0283179 0.0187371 0.00909264 0 0 0 1.7526e-18 1.67425e-18 -0.215686 -1.57726e-24 -1.50675e-24 -0.000290855 -7.58349e-18 7.93836e-18 1.0777e-32 0.001415 
1280 1 -0.00826091 0.0224106 0.00973801 0 0 0 7.20054e-19 2.6673e-19 -0.215686 -6.48014e-25 -2.40044e-25 -0.000290855 -8.98016e-19 2.42426e-18 -9.39155e-34 0.001415 
3551 1 0.0378271 0.027027 0.00916904 0 0 0 1.07715e-18 -6.30142e-18 -0.215686 -9.69381e-25 5.67097e-24 -0.000290855 3.71278e-17 6.34654e-18 -1.16604e-32 0.001415 
3968 1 -0.0261983 0.0364757 0.0105541 0 0 0 9.21285e-18 -2.88221e-17 -0.215686 1.64333e-19 -5.1411e-19 -0.000290855 -2.5936e-15 -8.29032e-16 2.25558e-30 0.001415 
9745 1 -0.0323504 0.0411674 0.00986045 0 0 0 0 0 -0.215686 0 0 -0.000290855 0 0 0 0.001415 
485 1 0.0142511 0.04219 0.00959968 0 0 0 -2.85385e-18 2.41892e-18 -0.215686 2.56833e-24 -2.17691e-24 -0.000290855 -1.26417e-17 -1.49147e-17 1.11465e-32 0.001415 
4098 1 0.0474587 0.0419422 0.00980507 0 0 0 6.71786e-19 -2.28422e-19 -0.215686 3.83568e-20 -1.30422e-20 -0.000290855 -1.40096e-17 -4.1202e-17 -1.35423e-31 0.001415 
4639 1 0.000319678 0.0462251 0.0101863 0 0 0 8.56405e-18 -4.61137e-18 -0.215686 1.60594e-18 -8.64729e-19 -0.000290855 2.12704e-16 3.95025e-16 -1.22736e-30 0.001415 
7349 1 0.0388392 0.0490157 0.0101543 0 0 0 -4.8447e-19 -8.19282e-18 -0.215686 -1.42157e-20 -2.40401e-19 -0.000290855 -5.01199e-16 2.96376e-17 -1.2807e-30 0.001415 
3318 1 0.0108764 -0.0748018 0.0122434 0 0 0 0 0 -0.215686 0 0 -0.000290855 0 0 0 0.001415 
5121 1 -0.0078553 -0.064238 0.0109963 0 0 0 -6.00954e-18 -2.11534e-18 -0.215686 -1.82214e-19 -6.41389e-20 -0.000290855 -2.98666e-16 8.48491e-16 3.26758e-29 0.001415 
6407 1 -0.0157638 -0.0542001 0.0118657 0 0 0 -9.21787e-18 2.68737e-18 -0.215686 -1.64838e-19 4.80568e-20 -0.000290855 -1.18913e-16 -4.0788e-16 -1.05083e-30 0.001415 
4748 1 -0.0463698 -0.05198 0.0126158 0 0 0 1.30629e-17 -1.90994e-18 -0.215686 7.91873e-20 -1.15781e-20 -0.000290855 -8.1742e-16 -5.59067e-15 1.64961e-29 0.001415 
8903 1 0.00719176 -0.0530399 0.0123915 0 0 0 -1.48109e-18 1.2504e-17 -0.215686 -4.79194e-20 4.04558e-19 -0.000290855 -2.65957e-15 -3.15023e-16 2.65324e-29 0.001415 
8421 1 -0.0125515 -0.050364 0.0120689 0 0 0 0 0 -0.215686 0 0 -0.000290855 0 0 0 0.001415 
5040 1 0.0412118 -0.051077 0.011646 0 0 0 0 0 -0.215686 0 0 -0.000290855 0 0 0 0.001415 
9218 1 -0.0344149 -0.0491301 0.0111528 0 0 0 -4.32287e-18 1.11896e-17 -0.215686 -1.31378e-19 3.40068e-19 -0.000290855 -1.67372e-15 -6.46606e-16 -1.59627e-29 0.001415 
8294 1 0.0417911 -0.0460756 0.011414 0 0 0 0 0 -0.215686 0 0 -0.000290855 0 0 0 0.001415 
8781 1 0.0111727 -0.0390904 0.0110592 0 0 0 -1.64008e-17 -7.48193e-18 -0.215686 -2.95089e-19 -1.34618e-19 -0.000290855 -1.33642e-15 2.92949e-15 2.12964e-30 0.001415 
7141 1 -0.0440609 -0.0300013 0.0126065 0 0 0 0 0 -0.215686 0 0 -0.000290855 0 0 0 0.001415 
6550 1 -0.00716818 -0.0295154 0.0122248 0 0 0 -2.79505e-18 4.53013e-19 -0.215686 -4.99831e-20 8.10108e-21 -0.000290855 -2.01784e-17 -1.24499e-16 7.04089e-34 0.001415 
9788 1 -0.0191042 -0.0222982 0.0124585 0 0 0 -1.3094e-18 -1.6282e-18 -0.215686 -1.22077e-19 -1.51799e-19 -0.000290855 2.35239e-15 -1.8918e-15 2.95773e-29 0.001415 
1405 1 0.0162037 -0.0193109 0.0123142 0 0 0 -1.94866e-17 -5.70086e-18 -0.215686 -5.36101e-19 -1.56837e-19 -0.000290855 7.02991e-16 -2.40296e-15 -8.0023e-31 0.001415 
8819 1 0.00974619 -0.0192248 0.0124893 0 0 0 8.30701e-19 2.55498e-17 -0.215686 2.17098e-20 6.67726e-19 -0.000290855 -2.27807e-15 7.40669e-17 -2.33125e-29 0.001415 
4472 1 -0.0211077 -0.0159411 0.0125638 0 0 0 -9.73587e-18 3.328e-17 -0.215686 -2.32309e-19 7.941e-19 -0.000290855 -5.07932e-15 -1.48593e-15 -4.47259e-29 0.001415 
4389 1 -0.00210167 -0.0164576 0.0112559 0 0 0 2.84773e-18 -1.38823e-18 -0.215686 1.04042e-19 -5.07193e-20 -0.000290855 -2.18193e-16 -4.47586e-16 1.60465e-30 0.001415 
2098 1 -0.0163785 -0.0113032 0.0120771 0 0 0 -3.8412e-18 -6.96945e-19 -0.215686 -7.18877e-20 -1.30432e-20 -0.000290855 1.65764e-17 -9.13606e-17 -7.14916e-32 0.001415 
4518 1 0.00403554 -0.00678852 0.0108077 0 0 0 -1.30193e-17 1.55425e-17 -0.215686 -3.31126e-19 3.95297e-19 -0.000290855 -2.66711e-15 -2.23414e-15 -5.69327e-29 0.001415 
9888 1 -0.0548111 -0.00420847 0.0108504 0 0 0 3.25039e-18 -4.05968e-18 -0.215686 1.07117e-19 -1.33788e-19 -0.000290855 -4.24104e-16 -3.39559e-16 -9.72383e-30 0.001415 
3527 1 0.053278 -0.000195356 0.0117173 0 0 0 1.03002e-17 4.68453e-18 -0.215686 1.83804e-19 8.35941e-20 -0.000290855 -2.38215e-16 5.23779e-16 4.74338e-32 0.001415 
4852 1 -0.0576017 0.00160357 0.0124783 0 0 0 6.70252e-18 1.09974e-17 -0.215686 2.12394e-19 3.48493e-19 -0.000290855 -1.20672e-15 7.35451e-16 4.2784e-29 0.001415 
2456 1 0.0231999 0.00341526 0.0126459 0 0 0 -1.81185e-16 1.13942e-16 -0.215686 -2.28247e-18 1.43539e-18 -0.000290855 1.51369e-16 2.40699e-16 -1.01439e-29 0.001415 
1470 1 -0.0541433 0.00552442 0.011098 0 0 0 1.53265e-17 1.47695e-17 -0.215686 3.98686e-19 3.84196e-19 -0.000290855 -2.58637e-15 2.68392e-15 7.62754e-29 0.001415 
7478 1 0.0063252 0.00556124 0.0109442 0 0 0 0 0 -0.215686 0 0 -0.000290855 0 0 0 0.001415 
5545 1 -0.0302182 0.00727945 0.0112383 0 0 0 0 0 -0.215686 0 0 -0.000290855 0 0 0 0.001415 
4367 1 0.0426483 0.0117219 0.0111439 0 0 0 -7.07654e-18 6.38355e-18 -0.215686 -2.33849e-19 2.10949e-19 -0.000290855 -2.1307e-16 -2.362e-16 4.63719e-30 0.001415 
4345 1 0.0473197 0.0133822 0.0115795 0 0 0 6.43579e-18 2.26205e-18 -0.215686 1.1506e-19 4.04413e-20 -0.000290855 -1.09562e-16 3.11716e-16 -5.654e-31 0.001415 
9994 1 -0.0272948 0.0197145 0.0115435 0 0 0 -1.42978e-17 -1.36587e-17 -0.215686 -3.86135e-19 -3.68873e-19 -0.000290855 1.67185e-15 -1.75008e-15 2.98342e-29 0.001415 
1279 1 -0.00741294 0.0227247 0.0124196 0 0 0 -1.68688e-17 -6.2487e-18 -0.215686 -4.46073e-19 -1.65239e-19 -0.000290855 -1.16133e-17 3.13508e-17 -1.30583e-29 0.001415 
2812 1 0.0619348 0.0249338 0.0110965 0 0 0 1.57495e-18 7.99119e-18 -0.215686 6.05553e-20 3.07252e-19 -0.000290855 4.5062e-17 -8.88111e-18 -2.72494e-29 0.001415 
4219 1 0.00713294 0.0263879 0.010906 0 0 0 1.11182e-18 -8.21704e-18 -0.215686 4.30383e-20 -3.18081e-19 -0.000290855 1.31819e-15 1.78359e-16 -6.18923e-30 0.001415 
3552 1 0.038076 0.0255707 0.0115828 0 0 0 -9.83732e-19 5.75492e-18 -0.215686 -3.60031e-20 2.10622e-19 -0.000290855 -1.28906e-15 -2.20349e-16 2.19241e-29 0.001415 
9955 1 0.0480973 0.0295036 0.0118782 0 0 0 0 0 -0.215686 0 0 -0.000290855 0 0 0 0.001415 
6216 1 -0.023401 0.0310553 0.0109755 0 0 0 -1.56314e-18 -7.26791e-18 -0.215686 -2.85603e-20 -1.32793e-19 -0.000290855 -2.06384e-16 4.4388e-17 -2.76034e-31 0.001415 
8775 1 0.0134757 0.0326995 0.0114615 0 0 0 -7.02926e-19 1.183e-18 -0.215686 -3.51943e-20 5.92306e-20 -0.000290855 3.28862e-16 1.95407e-16 -4.01524e-30 0.001415 
7874 1 -0.0157052 0.0360712 0.0111895 0 0 0 -2.4629e-18 -2.91323e-18 -0.215686 -4.39887e-20 -5.20318e-20 -0.000290855 1.75728e-16 -1.48564e-16 -2.06632e-31 0.001415 
4099 1 0.0465216 0.0422608 0.0124564 0 0 0 -2.13136e-18 7.24709e-19 -0.215686 -3.83555e-20 1.30417e-20 -0.000290855 -1.24889e-17 -3.67296e-17 -1.33961e-31 0.001415 
9746 1 -0.0326219 0.0429159 0.0120691 0 0 0 2.37515e-18 -1.52968e-17 -0.215686 7.29121e-20 -4.6958e-19 -0.000290855 2.93172e-15 4.55211e-16 -2.02191e-29 0.001415 
486 1 0.0131757 0.0431015 0.0120536 0 0 0 2.15889e-17 -1.82987e-17 -0.215686 5.35773e-19 -4.54121e-19 -0.000290855 3.38387e-15 3.9923e-15 -1.42135e-29 0.001415 
8316 1 0.0241447 0.055508 0.0126212 0 0 0 0 0 -0.215686 0 0 -0.000290855 0 0 0 0.001415 
6048 1 -0.0014895 0.0671831 0.0114687 0 0 0 -1.41092e-17 -8.47854e-19 -0.215686 -4.41612e-19 -2.65374e-20 -0.000290855 8.0773e-17 -1.34415e-15 1.9353e-30 0.001415 
3317 1 0.00879117 -0.0741345 0.0140365 0 0 0 5.97268e-16 -1.91134e-16 -0.215686 1.62387e-17 -5.19662e-18 -0.000290855 -1.46674e-15 -4.58335e-15 -9.60302e-29 0.001415 
4537 1 0.0348065 -0.0668743 0.0140145 0 0 0 1.94501e-16 -3.78777e-16 -0.215686 4.979e-18 -9.69627e-18 -0.000290855 5.68262e-15 2.918e-15 -3.9027e-29 0.001415 
5120 1 -0.00732864 -0.0640527 0.0137706 0 0 0 -2.36445e-16 -8.32279e-17 -0.215686 -6.20132e-18 -2.18285e-18 -0.000290855 1.27133e-15 -3.61177e-15 3.56292e-29 0.001415 
4749 1 -0.0443437 -0.0522762 0.0145692 0 0 0 -4.36352e-16 6.37996e-17 -0.215686 -1.30434e-17 1.9071e-18 -0.000290855 1.07909e-15 7.38031e-15 1.76127e-31 0.001415 
6408 1 -0.0176936 -0.0536375 0.0138577 0 0 0 6.40632e-16 -1.86769e-16 -0.215686 1.74715e-17 -5.09363e-18 -0.000290855 -2.91699e-16 -1.00055e-15 1.52433e-28 0.001415 
9217 1 -0.0337766 -0.0507822 0.01336 0 0 0 -1.87539e-16 4.85438e-16 -0.215686 -2.16932e-18 5.61521e-18 -0.000290855 -1.09082e-15 -4.21415e-16 3.33977e-28 0.001415 
5039 1 0.0393096 -0.0515993 0.0136752 0 0 0 5.85252e-16 1.60698e-16 -0.215686 1.64371e-17 4.51329e-18 -0.000290855 4.6555e-16 -1.6955e-15 6.53281e-29 0.001415 
8420 1 -0.0130316 -0.0490822 0.0145458 0 0 0 1.93751e-16 -5.17355e-16 -0.215686 5.47866e-18 -1.46291e-17 -0.000290855 1.99317e-15 7.46448e-16 1.2185e-28 0.001415 
8293 1 0.0410995 -0.0444363 0.0136148 0 0 0 2.54678e-16 -6.03634e-16 -0.215686 7.0124e-18 -1.66207e-17 -0.000290855 -9.13416e-15 -3.85377e-15 1.14312e-28 0.001415 
8782 1 0.00995582 -0.0396456 0.0135531 0 0 0 4.35548e-16 1.98695e-16 -0.215686 1.26962e-17 5.79192e-18 -0.000290855 2.63838e-15 -5.78345e-15 -1.17177e-28 0.001415 
164 1 0.0235073 -0.0400101 0.012754 0 0 0 1.67022e-17 2.22933e-16 -0.215686 3.40464e-19 4.54436e-18 -0.000290855 -3.4603e-15 2.59246e-16 1.18789e-29 0.001415 
1765 1 -0.00582286 -0.0341936 0.014308 0 0 0 4.98905e-16 -1.56126e-16 -0.215686 1.42921e-17 -4.47254e-18 -0.000290855 -2.97213e-15 -9.4975e-15 -1.77668e-29 0.001415 
2898 1 -0.0015393 -0.0260351 0.0145801 0 0 0 3.61963e-16 -7.14549e-17 -0.215686 9.28164e-18 -1.83229e-18 -0.000290855 5.71021e-16 2.89257e-15 -3.37469e-29 0.001415 
1113 1 0.057839 -0.0250229 0.0134367 0 0 0 5.44678e-16 2.79445e-16 -0.215686 1.5361e-17 7.8809e-18 -0.000290855 1.80338e-15 -3.51506e-15 -2.32698e-28 0.001415 
2604 1 -0.0264828 -0.0239558 0.0143047 0 0 0 5.13057e-16 -2.23382e-17 -0.215686 1.43503e-17 -6.24803e-19 -0.000290855 -4.97975e-16 -1.14373e-14 2.85081e-29 0.001415 
8818 1 0.00968245 -0.0211851 0.0145294 0 0 0 1.79319e-17 5.5153e-16 -0.215686 5.15336e-19 1.58501e-17 -0.000290855 1.81056e-16 -5.8867e-18 -1.72008e-29 0.001415 
3530 1 0.0663652 -0.0174708 0.0133865 0 0 0 3.43777e-16 4.22226e-16 -0.215686 8.64445e-18 1.06171e-17 -0.000290855 -2.51365e-15 2.04662e-15 -2.40366e-28 0.001415 
8587 1 -0.0404076 -0.0166605 0.0127565 0 0 0 2.98032e-17 -3.93591e-16 -0.215686 5.20721e-19 -6.87682e-18 -0.000290855 2.84711e-15 2.15587e-16 -8.26814e-30 0.001415 
4388 1 -0.00265555 -0.0161876 0.014018 0 0 0 2.42035e-16 -1.17989e-16 -0.215686 6.33948e-18 -3.09042e-18 -0.000290855 1.68794e-15 3.46252e-15 -5.71831e-30 0.001415 
2097 1 -0.0180782 -0.0116116 0.0143187 0 0 0 5.93292e-16 1.07646e-16 -0.215686 1.68495e-17 3.05715e-18 -0.000290855 1.45172e-15 -8.00115e-15 -1.30611e-28 0.001415 
5436 1 0.0238697 -0.0121851 0.012679 0 0 0 -1.10437e-18 2.09846e-18 -0.215686 5.27283e-20 -1.00192e-19 -0.000290855 1.61415e-15 8.49487e-16 -1.77405e-29 0.001415 
4519 1 0.0050482 -0.00799743 0.0131576 0 0 0 -2.62096e-16 3.12889e-16 -0.215686 -4.30195e-18 5.13567e-18 -0.000290855 -5.82102e-17 -4.87605e-17 8.568e-29 0.001415 
9887 1 -0.0551901 -0.00373509 0.0136147 0 0 0 1.69631e-16 -2.11867e-16 -0.215686 4.4394e-18 -5.54474e-18 -0.000290855 3.08076e-15 2.46661e-15 -1.03352e-29 0.001415 
4853 1 -0.0586257 -7.65915e-05 0.0145123 0 0 0 3.06177e-16 5.02372e-16 -0.215686 8.61931e-18 1.41425e-17 -0.000290855 -2.10457e-15 1.28266e-15 2.66208e-29 0.001415 
9744 1 -0.0476714 0.00124731 0.0133989 0 0 0 3.46768e-18 3.94997e-18 -0.215686 1.21176e-19 1.3803e-19 -0.000290855 -5.39016e-16 4.73202e-16 2.06655e-29 0.001415 
3403 1 0.0399954 0.00144601 0.0135338 0 0 0 -5.06085e-16 2.3949e-17 -0.215686 -1.49297e-17 7.06505e-19 -0.000290855 1.13826e-16 2.40533e-15 -1.63588e-29 0.001415 
3526 1 0.0549212 0.000551996 0.0138968 0 0 0 -5.99326e-16 -2.72573e-16 -0.215686 -1.66539e-17 -7.5742e-18 -0.000290855 -3.97322e-15 8.7362e-15 -5.09676e-28 0.001415 
3843 1 -0.0432547 0.00201405 0.0141193 0 0 0 4.79237e-16 3.26535e-16 -0.215686 1.36389e-17 9.29303e-18 -0.000290855 1.42207e-15 -2.0871e-15 4.1019e-28 0.001415 
6238 1 0.0476834 0.00358837 0.0136548 0 0 0 6.11444e-16 -3.93413e-16 -0.215686 1.66444e-17 -1.07093e-17 -0.000290855 -1.04726e-15 -1.62765e-15 -1.61028e-28 0.001415 
1469 1 -0.0554428 0.00427207 0.0132778 0 0 0 3.66964e-16 3.53626e-16 -0.215686 5.06352e-18 4.87948e-18 -0.000290855 2.56775e-15 -2.6646e-15 -2.03057e-28 0.001415 
7479 1 0.00708078 0.00479504 0.0135616 0 0 0 -3.1981e-16 3.24307e-16 -0.215686 -8.37322e-18 8.49097e-18 -0.000290855 -2.66154e-15 -2.62464e-15 -7.19966e-29 0.001415 
6444 1 -0.0485008 0.00805 0.0129682 0 0 0 -8.04001e-18 9.79461e-18 -0.215686 -2.70244e-19 3.29221e-19 -0.000290855 -2.37496e-15 -1.94951e-15 -6.12673e-29 0.001415 
5546 1 -0.0286421 0.00814112 0.0134252 0 0 0 -6.03483e-16 -3.29933e-16 -0.215686 -9.43288e-18 -5.15709e-18 -0.000290855 -4.4913e-15 8.21507e-15 -1.10002e-28 0.001415 
7897 1 0.0202104 0.0106666 0.0128211 0 0 0 4.01001e-18 1.91141e-17 -0.215686 1.12831e-19 5.37822e-19 -0.000290855 -1.80801e-15 3.79307e-16 8.90992e-30 0.001415 
4366 1 0.0434972 0.010956 0.0137327 0 0 0 -3.60005e-16 3.24751e-16 -0.215686 -9.27529e-18 8.36699e-18 -0.000290855 -1.68234e-15 -1.86498e-15 5.75041e-29 0.001415 
4430 1 -0.0607358 0.0123237 0.0131059 0 0 0 -4.27771e-16 9.13816e-17 -0.215686 -5.65632e-18 1.20832e-18 -0.000290855 1.60705e-16 7.52286e-16 2.79511e-29 0.001415 
5821 1 0.071151 0.0126674 0.0128082 0 0 0 -5.18058e-18 4.9794e-18 -0.215686 -9.25822e-20 8.8987e-20 -0.000290855 -2.65151e-16 -2.75863e-16 -2.37366e-30 0.001415 
4344 1 0.0486622 0.0138541 0.0140256 0 0 0 -5.42031e-16 -1.90513e-16 -0.215686 -1.53158e-17 -5.3832e-18 -0.000290855 1.03939e-16 -2.95719e-16 1.69089e-28 0.001415 
5629 1 -0.00809486 0.0186934 0.013899 0 0 0 5.30606e-16 9.28221e-18 -0.215686 1.51334e-17 2.64738e-19 -0.000290855 2.34857e-16 -1.34253e-14 2.08073e-29 0.001415 
9993 1 -0.0262716 0.020692 0.0139943 0 0 0 -3.3665e-16 -3.216e-16 -0.215686 -9.93204e-18 -9.48805e-18 -0.000290855 -3.19575e-15 3.3453e-15 1.23004e-28 0.001415 
3553 1 0.038325 0.0241144 0.0139965 0 0 0 -7.92749e-17 4.63765e-16 -0.215686 -2.32273e-18 1.35882e-17 -0.000290855 2.68897e-15 4.59645e-16 4.43066e-29 0.001415 
2811 1 0.0616855 0.0236687 0.0136157 0 0 0 1.03835e-16 5.26851e-16 -0.215686 2.89662e-18 1.46972e-17 -0.000290855 -4.21321e-15 8.30366e-16 -5.06321e-29 0.001415 
4218 1 0.00694369 0.0277865 0.013359 0 0 0 6.72111e-17 -4.96733e-16 -0.215686 1.94339e-18 -1.43629e-17 -0.000290855 -3.52694e-15 -4.77217e-16 4.06877e-29 0.001415 
9956 1 0.047731 0.0274693 0.0138111 0 0 0 1.0513e-16 5.83872e-16 -0.215686 2.94535e-18 1.63578e-17 -0.000290855 2.01743e-15 -3.63253e-16 1.1805e-30 0.001415 
6007 1 0.0347873 0.0296881 0.013581 0 0 0 1.59561e-16 1.78784e-16 -0.215686 4.25278e-18 4.76514e-18 -0.000290855 -2.73881e-15 2.44433e-15 2.35414e-29 0.001415 
8774 1 0.0137081 0.0323084 0.0142547 0 0 0 -1.05845e-16 1.78133e-16 -0.215686 -2.77472e-18 4.66975e-18 -0.000290855 -2.87565e-15 -1.70868e-15 1.28221e-29 0.001415 
6215 1 -0.0229502 0.0331509 0.0128232 0 0 0 -5.17262e-19 -2.40504e-18 -0.215686 -4.10806e-20 -1.91007e-19 -0.000290855 2.72675e-15 -5.86453e-16 -6.3315e-30 0.001415 
3967 1 -0.0257836 0.0351781 0.0130347 0 0 0 -1.54225e-16 4.82487e-16 -0.215686 -1.96807e-18 6.15704e-18 -0.000290855 -3.454e-16 -1.10405e-16 1.2509e-30 0.001415 
7873 1 -0.0162209 0.0354611 0.0139044 0 0 0 2.32524e-16 2.7504e-16 -0.215686 6.1297e-18 7.25048e-18 -0.000290855 -5.51033e-15 4.65854e-15 -6.7074e-30 0.001415 
6847 1 -0.0500743 0.0395872 0.014061 0 0 0 -5.79423e-16 2.49918e-16 -0.215686 -1.58117e-17 6.81993e-18 -0.000290855 5.03981e-15 1.16846e-14 -3.55038e-28 0.001415 
487 1 0.0121003 0.044013 0.0145075 0 0 0 3.45977e-16 -2.9325e-16 -0.215686 1.01805e-17 -8.62897e-18 -0.000290855 -7.56398e-16 -8.92401e-16 -2.28962e-29 0.001415 
9747 1 -0.0328934 0.0446643 0.0142777 0 0 0 9.16159e-17 -5.9004e-16 -0.215686 2.58782e-18 -1.66665e-17 -0.000290855 -3.40465e-15 -5.28643e-16 -4.12273e-29 0.001415 
4638 1 0.00148191 0.0455993 0.0126896 0 0 0 4.19156e-18 -2.25697e-18 -0.215686 -9.2478e-21 4.97954e-21 -0.000290855 -2.96594e-16 -5.50823e-16 -1.61391e-30 0.001415 
7348 1 0.0388741 0.0496065 0.0129217 0 0 0 -1.58901e-17 -2.68717e-16 -0.215686 -4.13854e-19 -6.99865e-18 -0.000290855 4.20596e-15 -2.48713e-16 -5.86512e-30 0.001415 
8315 1 0.0261215 0.0546907 0.014474 0 0 0 -5.80434e-16 2.39968e-16 -0.215686 -1.60971e-17 6.65501e-18 -0.000290855 5.43474e-16 1.31456e-15 4.48587e-28 0.001415 
4831 1 0.0293284 0.0560787 0.0130905 0 0 0 4.51819e-16 -2.51163e-16 -0.215686 6.79907e-18 -3.77955e-18 -0.000290855 -3.35682e-15 -6.03862e-15 -2.44595e-28 0.001415 
6909 1 0.00964204 0.0590336 0.0131246 0 0 0 5.9014e-17 -3.55575e-17 -0.215686 1.27609e-18 -7.6888e-19 -0.000290855 4.40828e-15 7.31632e-15 -1.5998e-28 0.001415 
6047 1 -2.16486e-05 0.0672713 0.0138867 0 0 0 -5.82239e-16 -3.4988e-17 -0.215686 -1.63077e-17 -9.79967e-19 -0.000290855 5.04349e-17 -8.39291e-16 -7.592e-30 0.001415 
7455 1 0.00864732 0.0657086 0.014033 0 0 0 -2.4404e-17 5.78715e-16 -0.215686 -7.004e-19 1.66093e-17 -0.000290855 -4.08375e-16 -1.72209e-17 -1.17605e-29 0.001415 
8757 1 0.00829498 0.0765507 0.0134795 0 0 0 0 0 -0.215686 0 0 -0.000290855 0 0 0 0.001415 
3316 1 0.00670592 -0.0734672 0.0158297 0 0 0 -5.97268e-16 1.91134e-16 -0.215686 -1.62387e-17 5.19662e-18 -0.000290855 -1.46674e-15 -4.58335e-15 -9.60302e-29 0.001415 
2499 1 0.0564696 -0.0568217 0.0159766 0 0 0 5.05734e-18 -1.15708e-17 -0.215686 9.20672e-20 -2.10642e-19 -0.000290855 -2.63545e-16 -1.1519e-16 -7.97552e-31 0.001415 
8902 1 0.00739974 -0.0547957 0.0146011 0 0 0 -6.97751e-17 5.89073e-16 -0.215686 -1.9713e-18 1.66426e-17 -0.000290855 1.68487e-15 1.99571e-16 1.50917e-29 0.001415 
4054 1 -0.0359786 -0.0521436 0.0162632 0 0 0 0 0 -0.215686 0 0 -0.000290855 0 0 0 0.001415 
9216 1 -0.0331383 -0.0524344 0.0155673 0 0 0 1.75981e-16 -4.55522e-16 -0.215686 -8.54289e-20 2.2113e-19 -0.000290855 2.63492e-15 1.01794e-15 1.94142e-28 0.001415 
6409 1 -0.0196234 -0.0530749 0.0158498 0 0 0 -6.40632e-16 1.86769e-16 -0.215686 -1.74715e-17 5.09363e-18 -0.000290855 -2.91699e-16 -1.00055e-15 1.52433e-28 0.001415 
5038 1 0.0374074 -0.0521216 0.0157044 0 0 0 -5.40104e-16 -1.48302e-16 -0.215686 -1.53948e-17 -4.2271e-18 -0.000290855 6.56325e-16 -2.39029e-15 1.17819e-28 0.001415 
8292 1 0.0404079 -0.0427971 0.0158156 0 0 0 -2.47175e-16 5.8585e-16 -0.215686 -6.79094e-18 1.60958e-17 -0.000290855 -8.97199e-15 -3.78535e-15 1.68992e-28 0.001415 
163 1 0.0234703 -0.0405039 0.0155404 0 0 0 -1.66005e-17 -2.21575e-16 -0.215686 -2.94885e-19 -3.93599e-18 -0.000290855 -2.62086e-15 1.96355e-16 1.29344e-29 0.001415 
8783 1 0.00873888 -0.0402008 0.0160471 0 0 0 -4.26542e-16 -1.94586e-16 -0.215686 -1.24035e-17 -5.65839e-18 -0.000290855 2.15678e-15 -4.72777e-15 -8.39301e-29 0.001415 
1766 1 -0.00794199 -0.0335305 0.0160625 0 0 0 -4.60862e-16 1.44221e-16 -0.215686 -1.34135e-17 4.1976e-18 -0.000290855 -2.56322e-15 -8.19082e-15 1.87353e-29 0.001415 
7142 1 -0.0430179 -0.0310366 0.0150251 0 0 0 -3.86348e-16 3.83488e-16 -0.215686 -1.0993e-17 1.09116e-17 -0.000290855 3.7756e-15 3.80375e-15 -2.0684e-28 0.001415 
6549 1 -0.00774795 -0.0294214 0.0149932 0 0 0 2.78867e-16 -4.51978e-17 -0.215686 7.24629e-18 -1.17445e-18 -0.000290855 5.88825e-16 3.63301e-15 2.80721e-30 0.001415 
1112 1 0.0563793 -0.0257718 0.0157427 0 0 0 -5.44678e-16 -2.79445e-16 -0.215686 -1.5361e-17 -7.8809e-18 -0.000290855 1.80338e-15 -3.51506e-15 -2.32698e-28 0.001415 