ITEM: TIMESTEP
110000
ITEM: NUMBER OF ATOMS
10248
ITEM: BOX BOUNDS ff ff ff
-0.2 0.2
-0.2 0.2
-0.01 0.5
ITEM: ATOMS id type x y z ix iy iz vx vy vz fx fy fz omegax omegay omegaz radius 
5124 1 -0.00943529 -0.0647942 0.00254197 0 0 0 -1.07557e-17 -3.78598e-18 -0.221568 9.802e-24 3.45027e-24 -0.000290848 2.43548e-16 -6.91905e-16 1.49157e-32 0.001415 
168 1 0.0236553 -0.0380352 0.00147747 0 0 0 1.23004e-17 1.6418e-16 -0.221568 3.17002e-19 4.2312e-18 -0.000290848 1.44801e-15 -1.08485e-16 -1.85351e-30 0.001415 
9891 1 -0.0536741 -0.00562861 0.00242644 0 0 0 7.12634e-18 -8.90068e-18 -0.221568 -6.49444e-24 8.11144e-24 -0.000290848 6.62959e-16 5.30798e-16 -2.89634e-31 0.001415 
8778 1 0.0127785 0.033873 0.00295075 0 0 0 -4.2974e-18 7.23236e-18 -0.221568 3.91634e-24 -6.59105e-24 -0.000290848 -4.43939e-16 -2.63784e-16 3.68634e-31 0.001415 
167 1 0.0236183 -0.0385289 0.00426382 0 0 0 -1.11215e-17 -1.48445e-16 -0.221568 -2.96304e-19 -3.95493e-18 -0.000290848 1.59745e-15 -1.19681e-16 6.23744e-30 0.001415 
5439 1 0.0255064 -0.015295 0.00481932 0 0 0 6.69749e-19 -1.27262e-18 -0.221568 -6.10361e-25 1.15978e-24 -0.000290848 -5.2391e-18 -2.7572e-18 2.22099e-33 0.001415 
4096 1 0.0493328 0.0413049 0.00437133 0 0 0 1.00804e-17 -3.42756e-18 -0.221568 1.28351e-19 -4.36423e-20 -0.000290848 -2.68172e-16 -7.88689e-16 1.43241e-30 0.001415 
5123 1 -0.00890863 -0.0646088 0.00531635 0 0 0 9.81935e-18 3.45638e-18 -0.221568 -8.94865e-24 -3.1499e-24 -0.000290848 2.42099e-16 -6.87787e-16 1.772e-32 0.001415 
8779 1 0.0136066 -0.0379801 0.00594011 0 0 0 1.14881e-19 5.24081e-20 -0.221568 -1.04694e-25 -4.7761e-26 -0.000290848 -4.07818e-19 8.93957e-19 -5.00764e-34 0.001415 
6552 1 -0.00600865 -0.0297033 0.00655687 0 0 0 7.94157e-19 -1.28714e-19 -0.221568 -7.23738e-25 1.17301e-25 -0.000290848 -4.68479e-19 -2.89048e-18 -2.04096e-34 0.001415 
9890 1 -0.0540531 -0.00515523 0.00519071 0 0 0 -6.21432e-18 7.76159e-18 -0.221568 5.66329e-24 -7.07335e-24 -0.000290848 6.56952e-16 5.25989e-16 -2.89954e-31 0.001415 
4516 1 0.00201022 -0.00437069 0.0059768 0 0 0 -1.07231e-18 1.28012e-18 -0.221568 9.77225e-25 -1.16661e-24 -0.000290848 4.69455e-18 3.93245e-18 -1.24815e-32 0.001415 
5818 1 0.0744051 0.00953964 0.00548624 0 0 0 2.36862e-19 -2.27664e-19 -0.221568 -2.15859e-25 2.07477e-25 -0.000290848 -2.53185e-19 -2.63414e-19 -1.71784e-34 0.001415 
6447 1 -0.0515136 0.0117203 0.00579918 0 0 0 -1.10174e-18 1.34218e-18 -0.221568 1.00405e-24 -1.22317e-24 -0.000290848 4.42243e-18 3.63019e-18 -1.38193e-32 0.001415 
4347 1 0.0446345 0.0124385 0.00655596 0 0 0 -7.28284e-19 -2.55978e-19 -0.221568 6.63706e-25 2.3328e-25 -0.000290848 -2.68505e-19 7.63927e-19 -3.25088e-35 0.001415 
9996 1 -0.0293411 0.0177597 0.00651061 0 0 0 -1.75257e-18 -1.67422e-18 -0.221568 1.59717e-24 1.52577e-24 -0.000290848 -7.58325e-18 7.93811e-18 1.07766e-32 0.001415 
4221 1 0.00751144 0.0235905 0.00586904 0 0 0 3.08438e-20 -2.27956e-19 -0.221568 -2.81088e-26 2.07742e-25 -0.000290848 4.14634e-19 5.61025e-20 1.0855e-34 0.001415 
3550 1 0.0375782 0.0284832 0.0066241 0 0 0 -1.07713e-18 6.3013e-18 -0.221568 9.81618e-25 -5.74256e-24 -0.000290848 3.71266e-17 6.34633e-18 -1.166e-32 0.001415 
2814 1 0.0624335 0.0274639 0.00592697 0 0 0 1.42416e-19 7.22604e-19 -0.221568 -1.29787e-25 -6.5853e-25 -0.000290848 1.1736e-18 -2.313e-19 1.95769e-33 0.001415 
8777 1 0.0130109 0.0334818 0.00574394 0 0 0 4.09761e-18 -6.89613e-18 -0.221568 -3.73427e-24 6.28464e-24 -0.000290848 -4.43166e-16 -2.63325e-16 3.68513e-31 0.001415 
4641 1 -0.00200478 0.0474767 0.00504852 0 0 0 -2.10643e-18 1.13422e-18 -0.221568 1.91965e-24 -1.03365e-24 -0.000290848 5.34864e-18 9.93329e-18 -2.46535e-33 0.001415 
5122 1 -0.00838197 -0.0644234 0.00809072 0 0 0 4.40583e-19 1.55084e-19 -0.221568 -9.85892e-21 -3.47031e-21 -0.000290848 9.34993e-17 -2.65625e-16 -2.25845e-30 0.001415 
8780 1 0.0123897 -0.0385353 0.00843406 0 0 0 2.2179e-17 1.01179e-17 -0.221568 2.87544e-19 1.31176e-19 -0.000290848 -1.90166e-15 4.16854e-15 1.56495e-30 0.001415 
166 1 0.0235813 -0.0390227 0.00705017 0 0 0 -1.12266e-18 -1.49848e-17 -0.221568 -2.0698e-20 -2.76267e-19 -0.000290848 1.50709e-16 -1.12912e-17 8.09086e-30 0.001415 
1407 1 0.0135434 -0.0200891 0.0072482 0 0 0 -6.80096e-19 -1.98963e-19 -0.221568 6.19791e-25 1.81321e-25 -0.000290848 -4.80061e-19 1.64094e-18 -6.54871e-34 0.001415 
8589 1 -0.0402517 -0.0187189 0.00735517 0 0 0 5.7819e-20 -7.63578e-19 -0.221568 -5.26921e-26 6.9587e-25 -0.000290848 3.63276e-18 2.75076e-19 -1.53628e-32 0.001415 
5438 1 0.0249608 -0.0142584 0.0073955 0 0 0 7.89714e-17 -1.50057e-16 -0.221568 5.73663e-18 -1.09005e-17 -0.000290848 -1.69025e-15 -8.89537e-16 -1.4706e-32 0.001415 
2100 1 -0.012979 -0.0106864 0.00746282 0 0 0 1.79095e-16 3.24948e-17 -0.221568 1.34638e-17 2.44286e-18 -0.000290848 -2.8161e-16 1.55209e-15 -1.04715e-32 0.001415 
9889 1 -0.0544321 -0.00468185 0.00795497 0 0 0 -9.12019e-19 1.1391e-18 -0.221568 8.31149e-25 -1.03809e-24 -0.000290848 -6.00717e-18 -4.80964e-18 -3.20203e-34 0.001415 
4517 1 0.00302288 -0.0055796 0.00832668 0 0 0 1.07231e-18 -1.28012e-18 -0.221568 -9.77225e-25 1.16661e-24 -0.000290848 4.69455e-18 3.93245e-18 -1.24815e-32 0.001415 
7477 1 0.00556963 0.00632744 0.00819558 0 0 0 0 0 -0.221568 0 0 -0.000290848 0 0 0 0.001415 
6446 1 -0.0505093 0.0104969 0.00814514 0 0 0 -2.05012e-18 2.49752e-18 -0.221568 -4.16618e-20 5.07539e-20 -0.000290848 4.46588e-17 3.66586e-17 6.98312e-31 0.001415 
5819 1 0.0733204 0.0105822 0.00788318 0 0 0 -2.36862e-19 2.27664e-19 -0.221568 2.15859e-25 -2.07477e-25 -0.000290848 -2.53185e-19 -2.63414e-19 -1.71784e-34 0.001415 
4368 1 0.0417993 0.0124877 0.00842399 0 0 0 0 0 -0.221568 0 0 -0.000290848 0 0 0 0.001415 
1281 1 -0.00910888 0.0220965 0.0069252 0 0 0 -7.20041e-19 -2.66725e-19 -0.221568 6.56194e-25 2.43074e-25 -0.000290848 -8.97987e-19 2.42418e-18 -9.39124e-34 0.001415 
4220 1 0.00732219 0.0249892 0.00832195 0 0 0 1.25302e-18 -9.26064e-18 -0.221568 1.7678e-20 -1.30652e-19 -0.000290848 -2.03174e-16 -2.74907e-17 7.1843e-31 0.001415 
2813 1 0.0621842 0.0261988 0.00844615 0 0 0 1.09479e-18 5.55486e-18 -0.221568 1.74806e-20 8.86954e-20 -0.000290848 -7.04649e-17 1.38877e-17 2.20768e-32 0.001415 
8776 1 0.0132433 0.0330907 0.00853712 0 0 0 -5.52542e-19 9.29907e-19 -0.221568 -1.07063e-20 1.80183e-20 -0.000290848 -1.67665e-17 -9.9625e-18 4.91507e-31 0.001415 
3969 1 -0.0266131 0.0377733 0.00794243 0 0 0 -1.2481e-17 3.90463e-17 -0.221568 -1.58974e-19 4.97346e-19 -0.000290848 -3.9244e-15 -1.25442e-15 1.06864e-30 0.001415 
7875 1 -0.0151895 0.0366812 0.00834336 0 0 0 3.33938e-18 3.94997e-18 -0.221568 4.26892e-20 5.04946e-20 -0.000290848 3.36718e-16 -2.84669e-16 -6.1126e-32 0.001415 
484 1 0.0153265 0.0412785 0.00701461 0 0 0 2.8538e-18 -2.41888e-18 -0.221568 -2.60075e-24 2.20439e-24 -0.000290848 -1.26413e-17 -1.49142e-17 1.11462e-32 0.001415 
4097 1 0.0483957 0.0416236 0.00702261 0 0 0 -8.62085e-18 2.93128e-18 -0.221568 -1.28353e-19 4.36428e-20 -0.000290848 -2.69692e-16 -7.93161e-16 1.43095e-30 0.001415 
4640 1 -0.000842548 0.0468509 0.00755181 0 0 0 -2.07339e-16 1.11643e-16 -0.221568 -1.41997e-17 7.64591e-18 -0.000290848 -3.41205e-16 -6.33672e-16 2.77966e-30 0.001415 
7350 1 0.0388042 0.0484249 0.00725568 0 0 0 -4.4403e-21 -7.50895e-20 -0.221568 4.04657e-27 6.84312e-26 -0.000290848 2.59555e-19 -1.53484e-20 3.67259e-36 0.001415 
6406 1 -0.013834 -0.0547628 0.00974245 0 0 0 1.25052e-17 -3.64575e-18 -0.221568 1.60265e-19 -4.67236e-20 -0.000290848 -2.27905e-16 -7.81732e-16 -5.02935e-31 0.001415 
4747 1 -0.048396 -0.0516837 0.0105312 0 0 0 -3.72631e-17 5.4483e-18 -0.221568 -4.80946e-19 7.03199e-20 -0.000290848 -1.74607e-16 -1.19421e-15 -6.9965e-31 0.001415 
8904 1 0.00698378 -0.051284 0.0100506 0 0 0 0 0 -0.221568 0 0 -0.000290848 0 0 0 0.001415 
9219 1 -0.0350531 -0.0474779 0.00881434 0 0 0 0 0 -0.221568 0 0 -0.000290848 0 0 0 0.001415 
8295 1 0.0424827 -0.0477148 0.00908206 0 0 0 0 0 -0.221568 0 0 -0.000290848 0 0 0 0.001415 
165 1 0.0235443 -0.0395164 0.00983652 0 0 0 3.08402e-19 4.1164e-18 -0.221568 1.00137e-20 1.33658e-19 -0.000290848 -1.49069e-16 1.11683e-17 1.72761e-29 0.001415 
6551 1 -0.00658842 -0.0296093 0.00932525 0 0 0 2.99699e-18 -4.85741e-19 -0.221568 4.85226e-20 -7.86437e-21 -0.000290848 -4.28327e-17 -2.64274e-16 3.15363e-32 0.001415 
9787 1 -0.0202299 -0.023698 0.0101404 0 0 0 -5.317e-18 -6.61152e-18 -0.221568 -7.07546e-20 -8.79811e-20 -0.000290848 -3.47315e-16 2.79312e-16 -4.2758e-30 0.001415 
1406 1 0.0148736 -0.0197 0.00971562 0 0 0 6.80096e-19 1.98963e-19 -0.221568 -6.19791e-25 -1.81321e-25 -0.000290848 -4.80061e-19 1.64094e-18 -6.54871e-34 0.001415 
8588 1 -0.0403296 -0.0176897 0.00999024 0 0 0 4.11318e-18 -5.43201e-17 -0.221568 7.29955e-20 -9.64004e-19 -0.000290848 6.23957e-15 4.72468e-16 5.29559e-29 0.001415 
8820 1 0.00980992 -0.0172644 0.010318 0 0 0 0 0 -0.221568 0 0 -0.000290848 0 0 0 0.001415 
3529 1 0.0670132 -0.0166749 0.010618 0 0 0 0 0 -0.221568 0 0 -0.000290848 0 0 0 0.001415 
4473 1 -0.0215554 -0.0144106 0.0100947 0 0 0 0 0 -0.221568 0 0 -0.000290848 0 0 0 0.001415 
5437 1 0.0244153 -0.0132218 0.00997167 0 0 0 -6.89219e-17 1.30962e-16 -0.221568 -5.54108e-18 1.05289e-17 -0.000290848 6.32694e-16 3.32971e-16 6.39244e-30 0.001415 
2099 1 -0.0146787 -0.0109948 0.00970439 0 0 0 -1.73154e-16 -3.14169e-17 -0.221568 -1.32982e-17 -2.41282e-18 -0.000290848 -2.28489e-16 1.25932e-15 -7.8738e-31 0.001415 
3528 1 0.0516347 -0.000942708 0.00940666 0 0 0 -1.39624e-17 -6.35008e-18 -0.221568 -1.78371e-19 -8.1123e-20 -0.000290848 -4.56617e-16 1.004e-15 -6.14133e-31 0.001415 
2457 1 0.0227749 0.00368251 0.00972964 0 0 0 0 0 -0.221568 0 0 -0.000290848 0 0 0 0.001415 
6445 1 -0.0495051 0.00927345 0.0104911 0 0 0 -1.75881e-19 2.14265e-19 -0.221568 -7.14801e-21 8.70795e-21 -0.000290848 -7.75474e-17 -6.36555e-17 2.93099e-30 0.001415 
4431 1 -0.0620527 0.012605 0.0104856 0 0 0 -3.27681e-17 7e-18 -0.221568 -6.26138e-19 1.33757e-19 -0.000290848 -1.2979e-15 -6.07569e-15 -3.48125e-29 0.001415 
4346 1 0.0459771 0.0129104 0.00900213 0 0 0 -8.00109e-18 -2.81222e-18 -0.221568 -1.11763e-19 -3.92823e-20 -0.000290848 -2.16625e-16 6.16322e-16 -1.29177e-30 0.001415 
5820 1 0.0722357 0.0116248 0.0102801 0 0 0 7.02607e-18 -6.75322e-18 -0.221568 8.99268e-20 -8.64346e-20 -0.000290848 -5.0812e-16 -5.28649e-16 -3.91086e-30 0.001415 
9995 1 -0.0283179 0.0187371 0.00896146 0 0 0 1.75257e-18 1.67422e-18 -0.221568 -1.59717e-24 -1.52577e-24 -0.000290848 -7.58325e-18 7.93811e-18 1.07766e-32 0.001415 
1280 1 -0.00826091 0.0224106 0.00960683 0 0 0 7.20041e-19 2.66725e-19 -0.221568 -6.56194e-25 -2.43074e-25 -0.000290848 -8.97987e-19 2.42418e-18 -9.39124e-34 0.001415 
3551 1 0.0378271 0.027027 0.00903786 0 0 0 1.07713e-18 -6.3013e-18 -0.221568 -9.81618e-25 5.74256e-24 -0.000290848 3.71266e-17 6.34633e-18 -1.166e-32 0.001415 
3968 1 -0.0261983 0.0364757 0.010423 0 0 0 1.2481e-17 -3.90463e-17 -0.221568 1.58974e-19 -4.97346e-19 -0.000290848 -3.9244e-15 -1.25442e-15 1.06864e-30 0.001415 
9745 1 -0.0323504 0.0411674 0.00972927 0 0 0 0 0 -0.221568 0 0 -0.000290848 0 0 0 0.001415 
485 1 0.0142511 0.04219 0.00946851 0 0 0 -2.8538e-18 2.41888e-18 -0.221568 2.60075e-24 -2.20439e-24 -0.000290848 -1.26413e-17 -1.49142e-17 1.11462e-32 0.001415 
4098 1 0.0474587 0.0419422 0.00967389 0 0 0 1.43797e-18 -4.88943e-19 -0.221568 3.74123e-20 -1.2721e-20 -0.000290848 -3.73849e-17 -1.09948e-16 -1.92437e-31 0.001415 
4639 1 0.000319678 0.0462251 0.0100551 0 0 0 1.95626e-16 -1.05336e-16 -0.221568 1.38924e-17 -7.48047e-18 -0.000290848 4.11408e-17 7.6405e-17 1.09679e-30 0.001415 
7349 1 0.0388392 0.0490157 0.0100231 0 0 0 -8.12881e-19 -1.37466e-17 -0.221568 -1.81677e-20 -3.07232e-19 -0.000290848 -1.61254e-16 9.5355e-18 -4.07994e-30 0.001415 
3318 1 0.0108764 -0.0748018 0.0121122 0 0 0 0 0 -0.221568 0 0 -0.000290848 0 0 0 0.001415 
5121 1 -0.0078553 -0.064238 0.0108651 0 0 0 -1.02802e-17 -3.61858e-18 -0.221568 -2.41998e-19 -8.51825e-20 -0.000290848 -2.53671e-16 7.20664e-16 6.30907e-29 0.001415 
6407 1 -0.0157638 -0.0542001 0.0117345 0 0 0 -1.25052e-17 3.64575e-18 -0.221568 -1.60265e-19 4.67236e-20 -0.000290848 -2.27905e-16 -7.81732e-16 -5.02935e-31 0.001415 
4748 1 -0.0463698 -0.05198 0.0124846 0 0 0 1.31508e-17 -1.9228e-18 -0.221568 -7.66468e-20 1.12066e-20 -0.000290848 -1.65464e-15 -1.13167e-14 4.55031e-29 0.001415 
8903 1 0.00719176 -0.0530399 0.0122603 0 0 0 -2.63497e-18 2.22456e-17 -0.221568 -6.68526e-20 5.644e-19 -0.000290848 -5.62954e-15 -6.66813e-16 4.93382e-29 0.001415 
8421 1 -0.0125515 -0.050364 0.0119377 0 0 0 0 0 -0.221568 0 0 -0.000290848 0 0 0 0.001415 
5040 1 0.0412118 -0.051077 0.0115148 0 0 0 0 0 -0.221568 0 0 -0.000290848 0 0 0 0.001415 
9218 1 -0.0344149 -0.0491301 0.0110216 0 0 0 -7.22114e-18 1.86917e-17 -0.221568 -1.55126e-19 4.01539e-19 -0.000290848 -3.033e-15 -1.17174e-15 -5.26174e-29 0.001415 
8294 1 0.0417911 -0.0460756 0.0112829 0 0 0 0 0 -0.221568 0 0 -0.000290848 0 0 0 0.001415 
8781 1 0.0111727 -0.0390904 0.010928 0 0 0 -2.22939e-17 -1.01703e-17 -0.221568 -2.87544e-19 -1.31176e-19 -0.000290848 -1.90125e-15 4.16764e-15 1.56545e-30 0.001415 
7141 1 -0.0440609 -0.0300013 0.0124753 0 0 0 0 0 -0.221568 0 0 -0.000290848 0 0 0 0.001415 
6550 1 -0.00716818 -0.0295154 0.0120936 0 0 0 -3.79115e-18 6.14456e-19 -0.221568 -4.85219e-20 7.86426e-21 -0.000290848 -4.23642e-17 -2.61384e-16 3.17404e-32 0.001415 
9788 1 -0.0191042 -0.0222982 0.0123273 0 0 0 -4.64468e-18 -5.77551e-18 -0.221568 -2.09878e-19 -2.60976e-19 -0.000290848 4.23008e-15 -3.40184e-15 1.58151e-28 0.001415 
1405 1 0.0162037 -0.0193109 0.012183 0 0 0 -3.1926e-17 -9.34001e-18 -0.221568 -6.99204e-19 -2.04553e-19 -0.000290848 1.39878e-15 -4.78132e-15 -7.6663e-29 0.001415 
8819 1 0.00974619 -0.0192248 0.0123581 0 0 0 1.32757e-18 4.08319e-17 -0.221568 2.7624e-20 8.49628e-19 -0.000290848 -5.61689e-15 1.82622e-16 -4.33761e-29 0.001415 
4472 1 -0.0211077 -0.0159411 0.0124326 0 0 0 -1.49141e-17 5.09808e-17 -0.221568 -2.81792e-19 9.63245e-19 -0.000290848 -9.10151e-15 -2.66259e-15 -8.89593e-29 0.001415 
4389 1 -0.00210167 -0.0164576 0.0111247 0 0 0 5.3793e-18 -2.62235e-18 -0.221568 1.47928e-19 -7.21131e-20 -0.000290848 -1.43638e-16 -2.94649e-16 -1.16317e-29 0.001415 
2098 1 -0.0163785 -0.0113032 0.011946 0 0 0 -5.94043e-18 -1.07783e-18 -0.221568 -1.65546e-19 -3.00365e-20 -0.000290848 5.31203e-17 -2.92772e-16 -7.76909e-31 0.001415 
4518 1 0.00403554 -0.00678852 0.0106766 0 0 0 -2.03392e-17 2.42809e-17 -0.221568 -3.92681e-19 4.68782e-19 -0.000290848 -6.10503e-15 -5.11395e-15 -1.38226e-28 0.001415 
9888 1 -0.0548111 -0.00420847 0.0107192 0 0 0 5.80526e-18 -7.25067e-18 -0.221568 1.46876e-19 -1.83445e-19 -0.000290848 -1.81311e-16 -1.45167e-16 -3.64355e-30 0.001415 
3527 1 0.053278 -0.000195356 0.0115861 0 0 0 1.39624e-17 6.35008e-18 -0.221568 1.78371e-19 8.1123e-20 -0.000290848 -4.56617e-16 1.004e-15 -6.14133e-31 0.001415 
4852 1 -0.0576017 0.00160357 0.0123471 0 0 0 1.17946e-17 1.93525e-17 -0.221568 2.9405e-19 4.82474e-19 -0.000290848 -3.22164e-15 1.96347e-15 1.32631e-29 0.001415 
2456 1 0.0231999 0.00341526 0.0125148 0 0 0 -2.26394e-16 1.42373e-16 -0.221568 -2.19497e-18 1.38036e-18 -0.000290848 1.07045e-15 1.70217e-15 -3.06613e-29 0.001415 
1470 1 -0.0541433 0.00552442 0.0109668 0 0 0 2.40954e-17 2.32197e-17 -0.221568 4.67565e-19 4.50571e-19 -0.000290848 -5.64061e-15 5.85336e-15 3.44892e-29 0.001415 
7478 1 0.0063252 0.00556124 0.010813 0 0 0 0 0 -0.221568 0 0 -0.000290848 0 0 0 0.001415 
5545 1 -0.0302182 0.00727945 0.0111071 0 0 0 0 0 -0.221568 0 0 -0.000290848 0 0 0 0.001415 
4367 1 0.0426483 0.0117219 0.0110128 0 0 0 -1.26525e-17 1.14134e-17 -0.221568 -3.20621e-19 2.89223e-19 -0.000290848 -9.84011e-16 -1.09083e-15 3.71868e-29 0.001415 
4345 1 0.0473197 0.0133822 0.0114483 0 0 0 8.72937e-18 3.0682e-18 -0.221568 1.11762e-19 3.92821e-20 -0.000290848 -2.16356e-16 6.15558e-16 -1.29174e-30 0.001415 
9994 1 -0.0272948 0.0197145 0.0114123 0 0 0 -2.32375e-17 -2.21987e-17 -0.221568 -5.0226e-19 -4.79807e-19 -0.000290848 3.61702e-15 -3.78628e-15 4.34038e-29 0.001415 
1279 1 -0.00741294 0.0227247 0.0122885 0 0 0 -2.69803e-17 -9.99429e-18 -0.221568 -5.57808e-19 -2.06629e-19 -0.000290848 3.32674e-16 -8.98075e-16 -3.07437e-29 0.001415 
2812 1 0.0619348 0.0249338 0.0109653 0 0 0 3.0849e-18 1.56525e-17 -0.221568 8.96204e-20 4.54726e-19 -0.000290848 -1.48034e-15 2.91755e-16 -3.4869e-29 0.001415 
4219 1 0.00713294 0.0263879 0.0107749 0 0 0 2.18614e-18 -1.6157e-17 -0.221568 6.37872e-20 -4.71428e-19 -0.000290848 2.91575e-15 3.9452e-16 7.7935e-30 0.001415 
3552 1 0.038076 0.0255707 0.0114516 0 0 0 -1.87838e-18 1.09887e-17 -0.221568 -5.31514e-20 3.10941e-19 -0.000290848 -2.6968e-15 -4.60984e-16 3.64526e-29 0.001415 
9955 1 0.0480973 0.0295036 0.011747 0 0 0 0 0 -0.221568 0 0 -0.000290848 0 0 0 0.001415 
6216 1 -0.023401 0.0310553 0.0108443 0 0 0 -2.13786e-18 -9.94009e-18 -0.221568 -2.83041e-20 -1.31602e-19 -0.000290848 -4.27136e-16 9.1866e-17 9.96913e-31 0.001415 
8775 1 0.0134757 0.0326995 0.0113303 0 0 0 -1.59778e-18 2.689e-18 -0.221568 -5.38915e-20 9.06975e-20 -0.000290848 1.77753e-16 1.05619e-16 -5.83571e-30 0.001415 
7874 1 -0.0157052 0.0360712 0.0110583 0 0 0 -3.33938e-18 -3.94997e-18 -0.221568 -4.26892e-20 -5.04946e-20 -0.000290848 3.36718e-16 -2.84669e-16 -6.1126e-32 0.001415 
4099 1 0.0465216 0.0422608 0.0123252 0 0 0 -2.89752e-18 9.8522e-19 -0.221568 -3.7411e-20 1.27205e-20 -0.000290848 -3.58642e-17 -1.05476e-16 -1.90975e-31 0.001415 
9746 1 -0.0326219 0.0429159 0.0119379 0 0 0 4.10888e-18 -2.64627e-17 -0.221568 9.94627e-20 -6.40576e-19 -0.000290848 6.19727e-15 9.62255e-16 -3.73463e-29 0.001415 
486 1 0.0131757 0.0431015 0.0119224 0 0 0 3.36853e-17 -2.85517e-17 -0.221568 6.65061e-19 -5.63705e-19 -0.000290848 6.11439e-15 7.21378e-15 -1.16696e-30 0.001415 
8316 1 0.0241447 0.055508 0.01249 0 0 0 0 0 -0.221568 0 0 -0.000290848 0 0 0 0.001415 
6048 1 -0.0014895 0.0671831 0.0113376 0 0 0 -2.46721e-17 -1.4826e-18 -0.221568 -6.08118e-19 -3.65431e-20 -0.000290848 1.99126e-16 -3.31368e-15 -1.30282e-29 0.001415 
3317 1 0.00879117 -0.0741345 0.0139054 0 0 0 8.77103e-16 -2.80685e-16 -0.221568 1.77925e-17 -5.69386e-18 -0.000290848 -4.21313e-15 -1.31654e-14 -6.5761e-28 0.001415 
4537 1 0.0348065 -0.0668743 0.0138833 0 0 0 2.78473e-16 -5.42308e-16 -0.221568 5.43925e-18 -1.05926e-17 -0.000290848 6.65408e-15 3.41685e-15 2.2476e-29 0.001415 
5120 1 -0.00732864 -0.0640527 0.0136395 0 0 0 -3.37925e-16 -1.18949e-16 -0.221568 -6.67541e-18 -2.34972e-18 -0.000290848 1.65197e-15 -4.69313e-15 7.08929e-29 0.001415 
4749 1 -0.0443437 -0.0522762 0.014438 0 0 0 -6.51014e-16 9.51857e-17 -0.221568 -1.44414e-17 2.1115e-18 -0.000290848 2.04358e-15 1.39769e-14 6.69599e-30 0.001415 
6408 1 -0.0176936 -0.0536375 0.0137266 0 0 0 9.40769e-16 -2.74271e-16 -0.221568 1.88813e-17 -5.50463e-18 -0.000290848 -2.0183e-15 -6.9229e-15 -3.55577e-29 0.001415 
9217 1 -0.0337766 -0.0507822 0.0132288 0 0 0 -2.30445e-16 5.965e-16 -0.221568 -2.07853e-18 5.38021e-18 -0.000290848 4.35476e-16 1.68237e-16 5.75989e-28 0.001415 
5039 1 0.0393096 -0.0515993 0.013544 0 0 0 8.56954e-16 2.35302e-16 -0.221568 1.38185e-17 3.79428e-18 -0.000290848 1.76834e-15 -6.44018e-15 2.89988e-28 0.001415 
8420 1 -0.0130316 -0.0490822 0.0144147 0 0 0 2.8606e-16 -7.63837e-16 -0.221568 5.88036e-18 -1.57017e-17 -0.000290848 -1.25292e-15 -4.69225e-16 4.3446e-28 0.001415 
8293 1 0.0410995 -0.0444363 0.0134836 0 0 0 3.74622e-16 -8.87924e-16 -0.221568 7.60704e-18 -1.80301e-17 -0.000290848 -1.85931e-14 -7.84457e-15 5.18484e-28 0.001415 
8782 1 0.00995582 -0.0396456 0.013422 0 0 0 6.47645e-16 2.95452e-16 -0.221568 1.39138e-17 6.34738e-18 -0.000290848 5.88496e-15 -1.29001e-14 -3.02769e-28 0.001415 
164 1 0.0235073 -0.0400101 0.0126229 0 0 0 2.33644e-17 3.11857e-16 -0.221568 3.18999e-19 4.25785e-18 -0.000290848 -4.23826e-15 3.17531e-16 2.40851e-29 0.001415 
1765 1 -0.00582286 -0.0341936 0.0141768 0 0 0 7.3987e-16 -2.31534e-16 -0.221568 1.56705e-17 -4.90388e-18 -0.000290848 -5.93755e-15 -1.89736e-14 1.10079e-28 0.001415 
2898 1 -0.0015393 -0.0260351 0.014449 0 0 0 5.17745e-16 -1.02208e-16 -0.221568 1.0098e-17 -1.99344e-18 -0.000290848 2.74674e-16 1.39139e-15 -3.00938e-29 0.001415 
1113 1 0.057839 -0.0250229 0.0133056 0 0 0 8.03504e-16 4.12234e-16 -0.221568 1.57954e-17 8.10377e-18 -0.000290848 4.28307e-15 -8.34833e-15 2.57365e-29 0.001415 
2604 1 -0.0264828 -0.0239558 0.0141735 0 0 0 7.57089e-16 -3.29632e-17 -0.221568 1.55615e-17 -6.77541e-19 -0.000290848 -9.63781e-16 -2.21358e-14 9.48773e-30 0.001415 
8818 1 0.00968245 -0.0211851 0.0143982 0 0 0 2.6482e-17 8.14504e-16 -0.221568 5.58344e-19 1.71729e-17 -0.000290848 2.14907e-15 -6.98729e-17 -3.10357e-29 0.001415 
3530 1 0.0663652 -0.0174708 0.0132553 0 0 0 4.89671e-16 6.01413e-16 -0.221568 9.26289e-18 1.13767e-17 -0.000290848 -1.59589e-16 1.29938e-16 -5.96786e-28 0.001415 
8587 1 -0.0404076 -0.0166605 0.0126253 0 0 0 3.99362e-17 -5.27411e-16 -0.221568 4.82878e-19 -6.37705e-18 -0.000290848 8.9576e-16 6.7828e-17 -2.26584e-29 0.001415 
4388 1 -0.00265555 -0.0161876 0.0138868 0 0 0 3.4674e-16 -1.69032e-16 -0.221568 6.94398e-18 -3.38511e-18 -0.000290848 2.00845e-15 4.12e-15 2.67972e-29 0.001415 
2097 1 -0.0180782 -0.0116116 0.0141875 0 0 0 8.7569e-16 1.58884e-16 -0.221568 1.80827e-17 3.28091e-18 -0.000290848 2.99371e-15 -1.64998e-14 -2.97243e-28 0.001415 
5436 1 0.0238697 -0.0121851 0.0125479 0 0 0 2.60305e-19 -4.94617e-19 -0.221568 6.70404e-20 -1.27387e-19 -0.000290848 4.163e-15 2.19088e-15 -7.59375e-30 0.001415 
4519 1 0.0050482 -0.00799743 0.0130264 0 0 0 -3.46419e-16 4.13554e-16 -0.221568 -4.04649e-18 4.8307e-18 -0.000290848 1.21992e-15 1.02188e-15 3.60151e-28 0.001415 
9887 1 -0.0551901 -0.00373509 0.0134835 0 0 0 2.42398e-16 -3.02751e-16 -0.221568 4.84074e-18 -6.046e-18 -0.000290848 3.97881e-15 3.18564e-15 -5.27452e-29 0.001415 
4853 1 -0.0586257 -7.65915e-05 0.0143811 0 0 0 4.50105e-16 7.38527e-16 -0.221568 9.30546e-18 1.52683e-17 -0.000290848 -7.10809e-16 4.33211e-16 5.42417e-29 0.001415 
9744 1 -0.0476714 0.00124731 0.0132677 0 0 0 6.45668e-18 7.3547e-18 -0.221568 1.76844e-19 2.0144e-19 -0.000290848 -2.1141e-15 1.85597e-15 -1.3706e-29 0.001415 
3403 1 0.0399954 0.00144601 0.0134027 0 0 0 -7.59505e-16 3.59414e-17 -0.221568 -1.21821e-17 5.76485e-19 -0.000290848 4.02474e-16 8.50498e-15 -3.27113e-29 0.001415 
3526 1 0.0549212 0.000551996 0.0137656 0 0 0 -8.81802e-16 -4.01043e-16 -0.221568 -1.78297e-17 -8.10894e-18 -0.000290848 -8.16447e-15 1.79518e-14 -9.39663e-28 0.001415 
3843 1 -0.0432547 0.00201405 0.0139881 0 0 0 7.09056e-16 4.83124e-16 -0.221568 1.47293e-17 1.0036e-17 -0.000290848 4.3805e-15 -6.42902e-15 9.80058e-28 0.001415 
6238 1 0.0476834 0.00358837 0.0135236 0 0 0 8.94796e-16 -5.75727e-16 -0.221568 1.78123e-17 -1.14607e-17 -0.000290848 -5.13949e-15 -7.98781e-15 1.95272e-28 0.001415 
1469 1 -0.0554428 0.00427207 0.0131466 0 0 0 4.66254e-16 4.49307e-16 -0.221568 4.76935e-18 4.596e-18 -0.000290848 5.9046e-15 -6.12731e-15 -2.75142e-28 0.001415 
7479 1 0.00708078 0.00479504 0.0134304 0 0 0 -4.58669e-16 4.65118e-16 -0.221568 -9.12646e-18 9.25479e-18 -0.000290848 -1.67882e-15 -1.65554e-15 6.86765e-29 0.001415 
6444 1 -0.0485008 0.00805 0.012837 0 0 0 -1.45525e-17 1.77283e-17 -0.221568 -3.77115e-19 4.59415e-19 -0.000290848 -4.92031e-15 -4.03888e-15 -1.26286e-28 0.001415 
5546 1 -0.0286421 0.00814112 0.013294 0 0 0 -7.8949e-16 -4.31626e-16 -0.221568 -8.97891e-18 -4.9089e-18 -0.000290848 -9.13085e-15 1.67013e-14 -4.56559e-28 0.001415 
7897 1 0.0202104 0.0106666 0.0126899 0 0 0 6.64058e-18 3.1653e-17 -0.221568 1.4875e-19 7.09034e-19 -0.000290848 -6.04596e-15 1.2684e-15 -1.07576e-29 0.001415 
4366 1 0.0434972 0.010956 0.0136015 0 0 0 -5.13536e-16 4.63247e-16 -0.221568 -1.00437e-17 9.06014e-18 -0.000290848 -2.24312e-16 -2.48663e-16 2.19076e-29 0.001415 
4430 1 -0.0607358 0.0123237 0.0129747 0 0 0 -5.38792e-16 1.15098e-16 -0.221568 -5.33671e-18 1.14004e-18 -0.000290848 7.42144e-16 3.47409e-15 -9.53769e-30 0.001415 
5821 1 0.071151 0.0126674 0.0126771 0 0 0 -7.02607e-18 6.75322e-18 -0.221568 -8.99268e-20 8.64346e-20 -0.000290848 -5.0812e-16 -5.28649e-16 -3.91086e-30 0.001415 
4344 1 0.0486622 0.0138541 0.0138945 0 0 0 -8.00342e-16 -2.81304e-16 -0.221568 -1.64385e-17 -5.7778e-18 -0.000290848 -1.38712e-15 3.94652e-15 3.45454e-28 0.001415 
5629 1 -0.00809486 0.0186934 0.0137678 0 0 0 8.00316e-16 1.40004e-17 -0.221568 1.51671e-17 2.65328e-19 -0.000290848 4.48898e-16 -2.56607e-14 6.45789e-29 0.001415 
9993 1 -0.0262716 0.020692 0.0138632 0 0 0 -4.99518e-16 -4.77188e-16 -0.221568 -1.07096e-17 -1.02309e-17 -0.000290848 -7.06687e-15 7.39756e-15 3.60614e-28 0.001415 
3553 1 0.038325 0.0241144 0.0138654 0 0 0 -1.17879e-16 6.89601e-16 -0.221568 -2.55694e-18 1.49583e-17 -0.000290848 7.62297e-15 1.30305e-15 1.11762e-28 0.001415 
2811 1 0.0616855 0.0236687 0.0134845 0 0 0 1.52407e-16 7.73298e-16 -0.221568 3.10965e-18 1.57781e-17 -0.000290848 -1.74238e-15 3.434e-16 -1.00133e-28 0.001415 
4218 1 0.00694369 0.0277865 0.0132278 0 0 0 9.94136e-17 -7.3473e-16 -0.221568 2.11508e-18 -1.56318e-17 -0.000290848 -8.06722e-15 -1.09154e-15 8.14447e-29 0.001415 
9956 1 0.047731 0.0274693 0.01368 0 0 0 1.55387e-16 8.62985e-16 -0.221568 3.08026e-18 1.71071e-17 -0.000290848 7.26832e-15 -1.30871e-15 -4.72287e-29 0.001415 
6007 1 0.0347873 0.0296881 0.0134498 0 0 0 2.29808e-16 2.57494e-16 -0.221568 4.69864e-18 5.26471e-18 -0.000290848 -2.83367e-15 2.52899e-15 4.70675e-29 0.001415 
8774 1 0.0137081 0.0323084 0.0141235 0 0 0 -1.51475e-16 2.54927e-16 -0.221568 -2.99095e-18 5.03366e-18 -0.000290848 -3.63498e-15 -2.15987e-15 2.64949e-29 0.001415 
6215 1 -0.0229502 0.0331509 0.012692 0 0 0 -1.63519e-18 -7.60294e-18 -0.221568 -7.0588e-20 -3.28203e-19 -0.000290848 7.08756e-15 -1.52435e-15 -5.64081e-29 0.001415 
3967 1 -0.0257836 0.0351781 0.0129035 0 0 0 -1.93271e-16 6.04642e-16 -0.221568 -1.89783e-18 5.9373e-18 -0.000290848 3.14948e-15 1.00672e-15 -8.6533e-29 0.001415 
7873 1 -0.0162209 0.0354611 0.0137732 0 0 0 3.33873e-16 3.94919e-16 -0.221568 6.65483e-18 7.87162e-18 -0.000290848 -6.45385e-15 5.45621e-15 1.15791e-28 0.001415 
6847 1 -0.0500743 0.0395872 0.0139298 0 0 0 -8.47445e-16 3.65522e-16 -0.221568 -1.5572e-17 6.71656e-18 -0.000290848 1.00009e-14 2.31867e-14 -1.07152e-27 0.001415 
487 1 0.0121003 0.044013 0.0143763 0 0 0 5.13375e-16 -4.35136e-16 -0.221568 1.11432e-17 -9.44495e-18 -0.000290848 -3.02984e-15 -3.57461e-15 -3.88312e-29 0.001415 
9747 1 -0.0328934 0.0446643 0.0141465 0 0 0 1.34679e-16 -8.67379e-16 -0.221568 2.76014e-18 -1.77763e-17 -0.000290848 -7.83168e-15 -1.21603e-15 -9.56338e-29 0.001415 
4638 1 0.00148191 0.0455993 0.0125584 0 0 0 4.08803e-18 -2.20123e-18 -0.221568 3.14235e-20 -1.69202e-20 -0.000290848 -6.94081e-16 -1.28902e-15 7.34312e-30 0.001415 
7348 1 0.0388741 0.0496065 0.0127905 0 0 0 -2.20341e-17 -3.72617e-16 -0.221568 -2.96127e-19 -5.00777e-18 -0.000290848 5.23881e-15 -3.09789e-16 -6.83884e-30 0.001415 
8315 1 0.0261215 0.0546907 0.0143428 0 0 0 -8.53483e-16 3.52854e-16 -0.221568 -1.73237e-17 7.16211e-18 -0.000290848 2.52046e-15 6.09648e-15 7.56501e-28 0.001415 
4831 1 0.0293284 0.0560787 0.0129593 0 0 0 5.86142e-16 -3.25832e-16 -0.221568 6.50024e-18 -3.61343e-18 -0.000290848 -7.32343e-15 -1.31742e-14 -5.12918e-28 0.001415 
6909 1 0.00964204 0.0590336 0.0129934 0 0 0 8.65335e-17 -5.21387e-17 -0.221568 1.45285e-18 -8.75383e-19 -0.000290848 9.28416e-15 1.54087e-14 -4.35547e-28 0.001415 
6047 1 -2.16486e-05 0.0672713 0.0137555 0 0 0 -8.54556e-16 -5.13522e-17 -0.221568 -1.73765e-17 -1.04419e-18 -0.000290848 -1.96069e-16 3.2628e-15 2.24804e-29 0.001415 
7455 1 0.00864732 0.0657086 0.0139018 0 0 0 -3.61694e-17 8.57721e-16 -0.221568 -7.5838e-19 1.79842e-17 -0.000290848 1.48887e-15 6.27845e-17 -1.48294e-29 0.001415 
8757 1 0.00829498 0.0765507 0.0133483 0 0 0 0 0 -0.221568 0 0 -0.000290848 0 0 0 0.001415 
3316 1 0.00670592 -0.0734672 0.0156985 0 0 0 -8.77103e-16 2.80685e-16 -0.221568 -1.77925e-17 5.69386e-18 -0.000290848 -4.21313e-15 -1.31654e-14 -6.5761e-28 0.001415 
2499 1 0.0564696 -0.0568217 0.0158454 0 0 0 6.90632e-18 -1.58011e-17 -0.221568 9.0791e-20 -2.07723e-19 -0.000290848 -5.01653e-16 -2.19261e-16 -2.61958e-30 0.001415 
8902 1 0.00739974 -0.0547957 0.01447 0 0 0 -1.02751e-16 8.67475e-16 -0.221568 -2.10737e-18 1.77914e-17 -0.000290848 5.75869e-15 6.8211e-16 -5.86728e-30 0.001415 
4054 1 -0.0359786 -0.0521436 0.016132 0 0 0 0 0 -0.221568 0 0 -0.000290848 0 0 0 0.001415 
9216 1 -0.0331383 -0.0524344 0.0154361 0 0 0 1.85389e-16 -4.79873e-16 -0.221568 -6.82294e-19 1.7661e-18 -0.000290848 6.29167e-15 2.43065e-15 3.14606e-28 0.001415 
6409 1 -0.0196234 -0.0530749 0.0157186 0 0 0 -9.40769e-16 2.74271e-16 -0.221568 -1.88813e-17 5.50463e-18 -0.000290848 -2.0183e-15 -6.9229e-15 -3.55577e-29 0.001415 
5038 1 0.0374074 -0.0521216 0.0155733 0 0 0 -7.84034e-16 -2.1528e-16 -0.221568 -1.06712e-17 -2.93009e-18 -0.000290848 2.04628e-15 -7.45241e-15 3.94949e-28 0.001415 
8292 1 0.0404079 -0.0427971 0.0156844 0 0 0 -3.61894e-16 8.57757e-16 -0.221568 -7.31053e-18 1.73273e-17 -0.000290848 -1.78729e-14 -7.5407e-15 5.73163e-28 0.001415 
163 1 0.0234703 -0.0405039 0.0154092 0 0 0 -2.28074e-17 -3.04422e-16 -0.221568 -2.38732e-19 -3.18649e-18 -0.000290848 -2.07954e-15 1.55799e-16 3.43168e-29 0.001415 
8783 1 0.00873888 -0.0402008 0.0159159 0 0 0 -6.31532e-16 -2.88101e-16 -0.221568 -1.3501e-17 -6.15908e-18 -0.000290848 4.85286e-15 -1.06377e-14 -1.9558e-28 0.001415 
1766 1 -0.00794199 -0.0335305 0.0159313 0 0 0 -6.82444e-16 2.13563e-16 -0.221568 -1.46304e-17 4.57842e-18 -0.000290848 -5.59904e-15 -1.78919e-14 9.43357e-29 0.001415 
7142 1 -0.0430179 -0.0310366 0.0148939 0 0 0 -5.72364e-16 5.68128e-16 -0.221568 -1.2034e-17 1.1945e-17 -0.000290848 8.59029e-15 8.65434e-15 -1.0322e-29 0.001415 
6549 1 -0.00774795 -0.0294214 0.014862 0 0 0 3.99758e-16 -6.47914e-17 -0.221568 7.91251e-18 -1.28243e-18 -0.000290848 6.21877e-16 3.83693e-15 1.78262e-29 0.001415 
1112 1 0.0563793 -0.0257718 0.0156115 0 0 0 -8.03424e-16 -4.12193e-16 -0.221568 -1.57954e-17 -8.10377e-18 -0.000290848 4.28005e-15 -8.34244e-15 2.53387e-29 0.001415 
2603 1 -0.028804 -0.0238547 0.0157893 0 0 0 -7.57089e-16 3.29632e-17 -0.221568 -1.55615e-17 6.77541e-19 -0.000290848 -9.63781e-16 -2.21358e-14 9.48773e-30 0.001415 