ITEM: TIMESTEP
225000
ITEM: NUMBER OF ATOMS
10248
ITEM: BOX BOUNDS ff ff ff
-0.2 0.2
-0.2 0.2
-0.01 0.5
ITEM: ATOMS id type x y z ix iy iz vx vy vz fx fy fz omegax omegay omegaz radius 
168 1 0.0237126 -0.0372704 0.00142348 0 0 0 0.0326141 0.435318 -0.00105999 -4.32832e-08 -5.77724e-07 -0.000291048 -307.731 23.0552 2.92763e-12 0.001415 
5124 1 -0.00943529 -0.0647942 0.00200644 0 0 0 -3.00906e-17 -1.05918e-17 -0.244114 -2.84143e-18 -1.00018e-18 -0.000290816 3.39907e-16 -9.65654e-16 -3.41103e-31 0.001415 
9891 1 -0.0536741 -0.00562861 0.00189091 0 0 0 1.87519e-17 -2.34208e-17 -0.244114 1.47192e-18 -1.8384e-18 -0.000290816 9.68053e-16 7.75072e-16 -1.85238e-30 0.001415 
8778 1 0.0127785 0.033873 0.00241522 0 0 0 -1.26351e-17 2.12644e-17 -0.244114 -1.23073e-18 2.07127e-18 -0.000290816 -6.04228e-16 -3.59026e-16 8.08854e-31 0.001415 
5123 1 -0.00890863 -0.0646088 0.00478081 0 0 0 2.91543e-17 1.02622e-17 -0.244114 2.84143e-18 1.00018e-18 -0.000290816 3.38458e-16 -9.61537e-16 -3.38299e-31 0.001415 
167 1 0.0236577 -0.0380026 0.00421147 0 0 0 0.0225716 0.301275 0.00614519 -2.40896e-08 -3.21537e-07 -0.000291056 400.655 -30.0171 1.61871e-11 0.001415 
5439 1 0.0255064 -0.015295 0.00428378 0 0 0 6.697e-19 -1.27253e-18 -0.244114 -6.39522e-25 1.21519e-24 -0.000290816 -5.23844e-18 -2.75686e-18 2.22071e-33 0.001415 
9890 1 -0.0540531 -0.00515523 0.00465517 0 0 0 -1.78399e-17 2.22817e-17 -0.244114 -1.47192e-18 1.8384e-18 -0.000290816 9.62046e-16 7.70263e-16 -1.8527e-30 0.001415 
5818 1 0.0744051 0.00953964 0.00495071 0 0 0 2.36845e-19 -2.27648e-19 -0.244114 -2.26173e-25 2.1739e-25 -0.000290816 -2.53153e-19 -2.63381e-19 -1.71763e-34 0.001415 
4096 1 0.0493328 0.0413049 0.00383579 0 0 0 2.26005e-16 -7.68468e-17 -0.244114 2.44668e-17 -8.31924e-18 -0.000290816 -1.49603e-15 -4.39981e-15 -8.99015e-31 0.001415 
4641 1 -0.00200478 0.0474767 0.00451298 0 0 0 -2.10627e-18 1.13414e-18 -0.244114 2.01136e-24 -1.08303e-24 -0.000290816 5.34797e-18 9.93205e-18 -2.46505e-33 0.001415 
166 1 0.0235611 -0.0392927 0.006859 0 0 0 -0.011405 -0.152229 -0.0696863 9.20777e-09 1.22901e-07 -0.000290993 -76.3124 5.71734 -1.31798e-11 0.001415 
8779 1 0.0136066 -0.0379801 0.00540457 0 0 0 3.16009e-19 1.44161e-19 -0.244114 -3.01769e-25 -1.37665e-25 -0.000290816 1.02145e-17 -2.23907e-17 9.65748e-32 0.001415 
6552 1 -0.00600865 -0.0297033 0.00602133 0 0 0 1.54072e-18 -2.49715e-19 -0.244114 9.20932e-20 -1.49261e-20 -0.000290816 5.47508e-18 3.37808e-17 -4.64898e-32 0.001415 
1407 1 0.0135434 -0.0200891 0.00671267 0 0 0 -1.34519e-18 -3.93537e-19 -0.244114 -2.95397e-20 -8.64188e-21 -0.000290816 -2.0714e-18 7.08046e-18 2.97912e-33 0.001415 
8589 1 -0.0402517 -0.0187189 0.00681963 0 0 0 1.48653e-19 -1.96317e-18 -0.244114 1.30402e-20 -1.72214e-19 -0.000290816 -1.60554e-16 -1.21573e-17 -3.06885e-30 0.001415 
5438 1 0.0249608 -0.0142584 0.00685996 0 0 0 7.61937e-16 -1.44779e-15 -0.244114 1.78829e-17 -3.39801e-17 -0.000290816 -3.1301e-14 -1.64729e-14 -2.51754e-28 0.001415 
2100 1 -0.012979 -0.0106864 0.00692728 0 0 0 1.84416e-15 3.34602e-16 -0.244114 4.53858e-17 8.23476e-18 -0.000290816 4.0738e-16 -2.24527e-15 5.06976e-28 0.001415 
4516 1 0.00201022 -0.00437069 0.00544126 0 0 0 -1.7908e-18 2.13785e-18 -0.244114 1.7101e-24 -2.04151e-24 -0.000290816 1.56447e-17 1.3105e-17 -1.84136e-31 0.001415 
6447 1 -0.0515136 0.0117203 0.00526364 0 0 0 -1.27926e-18 1.55844e-18 -0.244114 1.22161e-24 -1.48821e-24 -0.000290816 3.3823e-18 2.77639e-18 -3.23415e-32 0.001415 
4347 1 0.0446345 0.0124385 0.00602042 0 0 0 -1.46255e-18 -5.14057e-19 -0.244114 -3.94035e-20 -1.38495e-20 -0.000290816 1.51286e-17 -4.30425e-17 -3.15578e-31 0.001415 
9996 1 -0.0293411 0.0177597 0.00597508 0 0 0 -3.4615e-18 -3.30676e-18 -0.244114 -2.60217e-19 -2.48585e-19 -0.000290816 -4.43328e-17 4.64074e-17 2.66879e-31 0.001415 
1281 1 -0.00910888 0.0220965 0.00638966 0 0 0 -1.38638e-18 -5.13557e-19 -0.244114 -5.40328e-20 -2.00153e-20 -0.000290816 -3.81014e-18 1.02857e-17 6.20191e-33 0.001415 
4221 1 0.00751144 0.0235905 0.00533351 0 0 0 6.82599e-20 -5.04485e-19 -0.244114 -6.5184e-26 4.81752e-25 -0.000290816 2.47613e-17 3.35036e-18 -8.09389e-32 0.001415 
3550 1 0.0375782 0.0284832 0.00608857 0 0 0 -2.49469e-18 1.45942e-17 -0.244114 -1.91816e-19 1.12214e-18 -0.000290816 2.11726e-16 3.61919e-17 -1.46613e-31 0.001415 
2814 1 0.0624335 0.0274639 0.00539143 0 0 0 2.88501e-19 1.46383e-18 -0.244114 7.35442e-21 3.73157e-20 -0.000290816 -5.0149e-17 9.88369e-18 1.25775e-31 0.001415 
8777 1 0.0130109 0.0334818 0.0052084 0 0 0 1.22232e-17 -2.05712e-17 -0.244114 1.20709e-18 -2.03148e-18 -0.000290816 -6.15361e-16 -3.65641e-16 7.90747e-31 0.001415 
484 1 0.0153265 0.0412785 0.00647908 0 0 0 5.96514e-18 -5.05605e-18 -0.244114 4.52356e-19 -3.83416e-19 -0.000290816 -8.04401e-17 -9.49035e-17 1.99267e-31 0.001415 
4097 1 0.0483957 0.0416236 0.00648708 0 0 0 -2.2254e-16 7.56685e-17 -0.244114 -2.40889e-17 8.19077e-18 -0.000290816 -1.40911e-15 -4.14419e-15 -2.76219e-30 0.001415 
4640 1 -0.000842548 0.0468509 0.00701628 0 0 0 -1.78957e-15 9.63603e-16 -0.244114 -3.94068e-17 2.12188e-17 -0.000290816 1.03159e-14 1.91582e-14 -1.24018e-27 0.001415 
7350 1 0.0388042 0.0484249 0.00672015 0 0 0 -1.30974e-20 -2.21488e-19 -0.244114 1.25072e-26 2.11508e-25 -0.000290816 -2.33543e-17 1.38102e-18 4.39904e-32 0.001415 
5122 1 -0.00838197 -0.0644234 0.00755519 0 0 0 -2.80397e-16 -9.86989e-17 -0.244114 -1.0767e-17 -3.78996e-18 -0.000290816 -7.19874e-16 2.04512e-15 -7.37659e-29 0.001415 
9219 1 -0.0350531 -0.0474779 0.0082788 0 0 0 0 0 -0.244114 0 0 -0.000290816 0 0 0 0.001415 
8295 1 0.0424827 -0.0477148 0.00854652 0 0 0 0 0 -0.244114 0 0 -0.000290816 0 0 0 0.001415 
8780 1 0.0123897 -0.0385353 0.00789852 0 0 0 4.38549e-17 2.00064e-17 -0.244114 2.80445e-19 1.27938e-19 -0.000290816 -3.50094e-15 7.67423e-15 -1.75017e-29 0.001415 
6551 1 -0.00658842 -0.0296093 0.00878971 0 0 0 5.84113e-18 -9.4671e-19 -0.244114 -4.39434e-20 7.12219e-21 -0.000290816 -1.86196e-16 -1.14882e-15 6.22564e-31 0.001415 
9889 1 -0.0544321 -0.00468185 0.00741944 0 0 0 3.11148e-16 -3.88619e-16 -0.244114 1.06286e-17 -1.32749e-17 -0.000290816 -2.2137e-15 -1.7724e-15 3.04699e-29 0.001415 
4517 1 0.00302288 -0.0055796 0.00779114 0 0 0 1.40657e-18 -1.67916e-18 -0.244114 -1.78414e-19 2.1299e-19 -0.000290816 1.37687e-17 1.15336e-17 -3.08548e-31 0.001415 
3528 1 0.0516347 -0.000942708 0.00887113 0 0 0 -2.70012e-17 -1.22802e-17 -0.244114 -1.5833e-19 -7.20085e-20 -0.000290816 -1.96124e-15 4.31232e-15 -2.58179e-29 0.001415 
7477 1 0.00556963 0.00632744 0.00766004 0 0 0 -6.1636e-17 6.25027e-17 -0.244114 -4.98882e-18 5.05897e-18 -0.000290816 -2.87183e-16 -2.832e-16 1.79018e-29 0.001415 
6446 1 -0.0505093 0.0104969 0.0076096 0 0 0 -3.12118e-17 3.80233e-17 -0.244114 -2.8504e-18 3.47246e-18 -0.000290816 6.49243e-17 5.32938e-17 1.96194e-30 0.001415 
5819 1 0.0733204 0.0105822 0.00734765 0 0 0 4.30749e-16 -4.14022e-16 -0.244114 1.67253e-17 -1.60758e-17 -0.000290816 1.62607e-15 1.69177e-15 9.79198e-29 0.001415 
4368 1 0.0417993 0.0124877 0.00788845 0 0 0 0 0 -0.244114 0 0 -0.000290816 0 0 0 0.001415 
4346 1 0.0459771 0.0129104 0.00846659 0 0 0 -1.62096e-17 -5.69734e-18 -0.244114 -8.38481e-20 -2.9471e-20 -0.000290816 -5.87718e-16 1.67212e-15 4.48696e-30 0.001415 
9995 1 -0.0283179 0.0187371 0.00842593 0 0 0 3.4615e-18 3.30676e-18 -0.244114 2.60217e-19 2.48585e-19 -0.000290816 -4.43328e-17 4.64074e-17 2.66879e-31 0.001415 
4220 1 0.00732219 0.0249892 0.00778642 0 0 0 2.73166e-18 -2.01887e-17 -0.244114 6.68235e-20 -4.93869e-19 -0.000290816 -3.83944e-15 -5.195e-16 1.30732e-30 0.001415 
2813 1 0.0621842 0.0261988 0.00791062 0 0 0 2.48268e-18 1.25969e-17 -0.244114 1.51125e-20 7.66798e-20 -0.000290816 4.04198e-15 -7.96619e-16 -8.13641e-30 0.001415 
3551 1 0.0378271 0.027027 0.00850233 0 0 0 2.49469e-18 -1.45942e-17 -0.244114 1.91816e-19 -1.12214e-18 -0.000290816 2.11726e-16 3.61919e-17 -1.46613e-31 0.001415 
8776 1 0.0132433 0.0330907 0.00800159 0 0 0 -1.33538e-18 2.2474e-18 -0.244114 7.85943e-21 -1.32271e-20 -0.000290816 1.04759e-15 6.2247e-16 2.13052e-30 0.001415 
3969 1 -0.0266131 0.0377733 0.0074069 0 0 0 -2.57394e-16 8.05249e-16 -0.244114 -8.65379e-18 2.70731e-17 -0.000290816 -6.06823e-15 -1.93968e-15 -1.96857e-29 0.001415 
7875 1 -0.0151895 0.0366812 0.00780783 0 0 0 7.01798e-18 8.30117e-18 -0.244114 5.31443e-20 6.28613e-20 -0.000290816 1.6768e-15 -1.4176e-15 7.43609e-30 0.001415 
485 1 0.0142511 0.04219 0.00893297 0 0 0 -5.96514e-18 5.05605e-18 -0.244114 -4.52356e-19 3.83416e-19 -0.000290816 -8.04401e-17 -9.49035e-17 1.99267e-31 0.001415 
5121 1 -0.0078553 -0.064238 0.0103296 0 0 0 2.27412e-16 8.00483e-17 -0.244114 9.92758e-18 3.49448e-18 -0.000290816 -1.32186e-15 3.75532e-15 3.35989e-28 0.001415 
6406 1 -0.013834 -0.0547628 0.00920692 0 0 0 2.42654e-17 -7.07432e-18 -0.244114 1.43374e-19 -4.17991e-20 -0.000290816 -9.80502e-16 -3.36319e-15 1.81452e-29 0.001415 
4747 1 -0.048396 -0.0516837 0.00999569 0 0 0 -7.30162e-17 1.06758e-17 -0.244114 -4.42682e-19 6.47251e-20 -0.000290816 4.28111e-16 2.92803e-15 8.89052e-30 0.001415 
8904 1 0.00698378 -0.051284 0.00951507 0 0 0 0 0 -0.244114 0 0 -0.000290816 0 0 0 0.001415 
9218 1 -0.0344149 -0.0491301 0.0104861 0 0 0 -2.23175e-17 5.77682e-17 -0.244114 -2.29916e-19 5.9513e-19 -0.000290816 -1.34658e-14 -5.20223e-15 -1.12428e-28 0.001415 
8294 1 0.0417911 -0.0460756 0.0107473 0 0 0 0 0 -0.244114 0 0 -0.000290816 0 0 0 0.001415 
8781 1 0.0111727 -0.0390904 0.0103925 0 0 0 1.51563e-18 6.91423e-19 -0.244114 3.93047e-19 1.79306e-19 -0.000290816 -6.72134e-15 1.47335e-14 7.12489e-29 0.001415 
165 1 0.0235393 -0.0395826 0.00971572 0 0 0 -0.0026846 -0.0358328 -0.0250071 1.52336e-09 2.03331e-08 -0.000291035 -10.1219 0.758332 -1.9331e-11 0.001415 
9787 1 -0.0202299 -0.023698 0.00960487 0 0 0 -1.13273e-17 -1.40851e-17 -0.244114 -8.66808e-20 -1.07785e-19 -0.000290816 -5.22175e-16 4.19934e-16 -7.71315e-29 0.001415 
1406 1 0.0148736 -0.0197 0.00918009 0 0 0 1.34519e-18 3.93537e-19 -0.244114 2.95397e-20 8.64188e-21 -0.000290816 -2.0714e-18 7.08046e-18 2.97912e-33 0.001415 
8588 1 -0.0403296 -0.0176897 0.0094547 0 0 0 1.2202e-17 -1.61144e-16 -0.244114 1.04619e-19 -1.38164e-18 -0.000290816 2.96177e-14 2.24269e-15 1.81741e-28 0.001415 
4389 1 -0.00210167 -0.0164576 0.0105892 0 0 0 3.54377e-17 -1.72755e-17 -0.244114 4.99964e-19 -2.43727e-19 -0.000290816 -1.4229e-16 -2.91884e-16 -5.87671e-29 0.001415 
8820 1 0.00980992 -0.0172644 0.00978249 0 0 0 0 0 -0.244114 0 0 -0.000290816 0 0 0 0.001415 
3529 1 0.0670132 -0.0166749 0.0100825 0 0 0 6.6729e-18 8.19565e-18 -0.244114 3.71296e-19 4.56025e-19 -0.000290816 -3.14386e-16 2.55974e-16 -6.92126e-29 0.001415 
4473 1 -0.0215554 -0.0144106 0.00955917 0 0 0 0 0 -0.244114 0 0 -0.000290816 0 0 0 0.001415 
5437 1 0.0244153 -0.0132218 0.00943614 0 0 0 -7.1262e-16 1.35408e-15 -0.244114 -1.6892e-17 3.20973e-17 -0.000290816 -1.85612e-14 -9.76827e-15 -1.3722e-29 0.001415 
2099 1 -0.0146787 -0.0109948 0.00916886 0 0 0 -1.77827e-15 -3.22647e-16 -0.244114 -4.36411e-17 -7.9182e-18 -0.000290816 9.25211e-16 -5.09929e-15 2.82341e-28 0.001415 
4518 1 0.00403554 -0.00678852 0.010141 0 0 0 -5.77568e-17 6.895e-17 -0.244114 -3.93707e-19 4.70007e-19 -0.000290816 -2.43423e-14 -2.03907e-14 -9.85465e-28 0.001415 
9888 1 -0.0548111 -0.00420847 0.0101837 0 0 0 -2.78009e-16 3.47229e-16 -0.244114 -1.0007e-17 1.24986e-17 -0.000290816 -2.07892e-15 -1.66449e-15 3.2614e-31 0.001415 
2457 1 0.0227749 0.00368251 0.00919411 0 0 0 0 0 -0.244114 0 0 -0.000290816 0 0 0 0.001415 
1470 1 -0.0541433 0.00552442 0.0104312 0 0 0 6.93661e-17 6.68449e-17 -0.244114 6.86615e-19 6.61659e-19 -0.000290816 -2.70251e-14 2.80444e-14 -9.46032e-29 0.001415 
7478 1 0.0063252 0.00556124 0.0102775 0 0 0 3.5371e-17 -3.58684e-17 -0.244114 4.5781e-18 -4.64247e-18 -0.000290816 -8.21835e-16 -8.10439e-16 -3.107e-28 0.001415 
5545 1 -0.0302182 0.00727945 0.0105716 0 0 0 0 0 -0.244114 0 0 -0.000290816 0 0 0 0.001415 
6445 1 -0.0495051 0.00927345 0.00995556 0 0 0 2.45972e-17 -2.99651e-17 -0.244114 2.76717e-18 -3.37106e-18 -0.000290816 1.92024e-15 1.57625e-15 3.04859e-29 0.001415 
4431 1 -0.0620527 0.012605 0.00995008 0 0 0 -9.12663e-17 1.94965e-17 -0.244114 -8.70012e-19 1.85854e-19 -0.000290816 -5.78417e-15 -2.70766e-14 7.18266e-29 0.001415 
4367 1 0.0426483 0.0117219 0.0104772 0 0 0 -6.20876e-17 5.60076e-17 -0.244114 -6.65342e-19 6.00187e-19 -0.000290816 -5.88282e-15 -6.52145e-15 -4.18297e-28 0.001415 
4345 1 0.0473197 0.0133822 0.0109128 0 0 0 -2.95752e-17 -1.03951e-17 -0.244114 -5.76215e-19 -2.02528e-19 -0.000290816 2.49307e-15 -7.09305e-15 -3.73267e-28 0.001415 
5820 1 0.0722357 0.0116248 0.00974459 0 0 0 -4.12862e-16 3.96829e-16 -0.244114 -1.63761e-17 1.57402e-17 -0.000290816 -1.98545e-16 -2.06566e-16 2.2199e-29 0.001415 
9994 1 -0.0272948 0.0197145 0.0108768 0 0 0 -9.1833e-17 -8.77278e-17 -0.244114 -9.12097e-19 -8.71323e-19 -0.000290816 1.93626e-14 -2.02687e-14 -7.58103e-28 0.001415 
1280 1 -0.00826091 0.0224106 0.0090713 0 0 0 1.38638e-18 5.13557e-19 -0.244114 5.40328e-20 2.00153e-20 -0.000290816 -3.81014e-18 1.02857e-17 6.20191e-33 0.001415 
2812 1 0.0619348 0.0249338 0.0104298 0 0 0 1.74853e-17 8.87188e-17 -0.244114 1.92944e-19 9.78983e-19 -0.000290816 -9.43381e-15 1.85928e-15 1.27801e-28 0.001415 
4219 1 0.00713294 0.0263879 0.0102393 0 0 0 1.14199e-17 -8.44007e-17 -0.244114 9.24181e-20 -6.83029e-19 -0.000290816 2.23158e-14 3.01947e-15 2.06922e-28 0.001415 
3552 1 0.038076 0.0255707 0.0109161 0 0 0 -1.15884e-17 6.77934e-17 -0.244114 -1.33842e-19 7.82987e-19 -0.000290816 -1.5556e-14 -2.6591e-15 3.65134e-28 0.001415 
6216 1 -0.023401 0.0310553 0.0103088 0 0 0 -4.34554e-18 -2.02048e-17 -0.244114 -2.88515e-20 -1.34147e-19 -0.000290816 -2.44975e-15 5.26878e-16 1.07551e-29 0.001415 
8775 1 0.0134757 0.0326995 0.0107948 0 0 0 -1.34273e-17 2.25977e-17 -0.244114 -1.88756e-19 3.17668e-19 -0.000290816 7.84113e-16 4.65912e-16 -2.39613e-29 0.001415 
3968 1 -0.0261983 0.0364757 0.00988744 0 0 0 2.57394e-16 -8.05249e-16 -0.244114 8.65379e-18 -2.70731e-17 -0.000290816 -6.06823e-15 -1.93968e-15 -1.96857e-29 0.001415 
7874 1 -0.0157052 0.0360712 0.0105227 0 0 0 1.80836e-17 2.13901e-17 -0.244114 3.75217e-19 4.43823e-19 -0.000290816 2.17641e-15 -1.83998e-15 -2.32059e-28 0.001415 
9745 1 -0.0323504 0.0411674 0.00919374 0 0 0 0 0 -0.244114 0 0 -0.000290816 0 0 0 0.001415 
4098 1 0.0474587 0.0419422 0.00913836 0 0 0 2.75751e-18 -9.37615e-19 -0.244114 -3.23422e-19 1.09971e-19 -0.000290816 1.80696e-16 5.31423e-16 3.01531e-30 0.001415 
4639 1 0.000319678 0.0462251 0.00951957 0 0 0 1.70771e-15 -9.19527e-16 -0.244114 3.75039e-17 -2.01942e-17 -0.000290816 1.13493e-14 2.10775e-14 -8.88405e-28 0.001415 
7349 1 0.0388392 0.0490157 0.00948757 0 0 0 -3.19168e-18 -5.39742e-17 -0.244114 -3.71672e-20 -6.28531e-19 -0.000290816 6.98601e-15 -4.13107e-16 -5.82931e-29 0.001415 
6048 1 -0.0014895 0.0671831 0.010802 0 0 0 -1.0978e-16 -6.59695e-18 -0.244114 -1.14723e-18 -6.89396e-20 -0.000290816 1.26702e-15 -2.10846e-14 -1.62555e-28 0.001415 
3318 1 0.0108764 -0.0748018 0.0115767 0 0 0 0 0 -0.244114 0 0 -0.000290816 0 0 0 0.001415 
6407 1 -0.0157638 -0.0542001 0.011199 0 0 0 -2.42654e-17 7.07432e-18 -0.244114 -1.43374e-19 4.17991e-20 -0.000290816 -9.80502e-16 -3.36319e-15 1.81452e-29 0.001415 
4748 1 -0.0463698 -0.05198 0.0119491 0 0 0 -1.45257e-17 2.12383e-18 -0.244114 -4.19558e-19 6.13442e-20 -0.000290816 -6.21087e-15 -4.24787e-14 2.06513e-28 0.001415 
8903 1 0.00719176 -0.0530399 0.0117248 0 0 0 -1.03393e-17 8.72887e-17 -0.244114 -1.03848e-19 8.76733e-19 -0.000290816 -2.42932e-14 -2.87751e-15 2.84926e-28 0.001415 
9217 1 -0.0337766 -0.0507822 0.0126933 0 0 0 -3.66138e-16 9.47738e-16 -0.244114 -1.43452e-18 3.7132e-18 -0.000290816 5.07753e-15 1.9616e-15 1.52678e-27 0.001415 
8421 1 -0.0125515 -0.050364 0.0114022 0 0 0 1.37056e-17 -3.65968e-17 -0.244114 2.0309e-19 -5.42292e-19 -0.000290816 4.6005e-15 1.7229e-15 -1.08902e-27 0.001415 
5040 1 0.0412118 -0.051077 0.0109793 0 0 0 0 0 -0.244114 0 0 -0.000290816 0 0 0 0.001415 
164 1 0.0235021 -0.04008 0.012532 0 0 0 -0.00275481 -0.03677 -0.00380805 1.52745e-09 2.03877e-08 -0.000291047 8.21583 -0.615531 -1.82189e-11 0.001415 
7141 1 -0.0440609 -0.0300013 0.0119398 0 0 0 0 0 -0.244114 0 0 -0.000290816 0 0 0 0.001415 
6550 1 -0.00716818 -0.0295154 0.0115581 0 0 0 -2.5079e-19 4.06471e-20 -0.244114 3.40874e-19 -5.52476e-20 -0.000290816 -2.50363e-16 -1.54472e-15 -2.54961e-29 0.001415 
1113 1 0.057839 -0.0250229 0.01277 0 0 0 1.79429e-15 9.20553e-16 -0.244114 1.05377e-17 5.40631e-18 -0.000290816 1.8972e-14 -3.69792e-14 3.03932e-28 0.001415 
9788 1 -0.0191042 -0.0222982 0.0117917 0 0 0 -5.22649e-17 -6.49897e-17 -0.244114 -6.55597e-19 -8.15214e-19 -0.000290816 2.14609e-14 -1.72589e-14 1.34408e-27 0.001415 
1405 1 0.0162037 -0.0193109 0.0116475 0 0 0 -1.26325e-16 -3.69566e-17 -0.244114 -1.25512e-18 -3.67189e-19 -0.000290816 7.24433e-15 -2.47626e-14 -7.5797e-28 0.001415 
8819 1 0.00974619 -0.0192248 0.0118226 0 0 0 4.25733e-18 1.30942e-16 -0.244114 3.86078e-20 1.18745e-18 -0.000290816 -2.8094e-14 9.13422e-16 -2.59831e-28 0.001415 
3530 1 0.0663652 -0.0174708 0.0127198 0 0 0 8.50892e-16 1.04506e-15 -0.244114 1.12848e-18 1.386e-18 -0.000290816 7.60129e-15 -6.18898e-15 3.83396e-28 0.001415 
8587 1 -0.0404076 -0.0166605 0.0120898 0 0 0 6.59877e-17 -8.71456e-16 -0.244114 2.39997e-19 -3.16948e-18 -0.000290816 -1.47541e-14 -1.1172e-15 -3.19364e-29 0.001415 
4472 1 -0.0211077 -0.0159411 0.0118971 0 0 0 -4.35024e-17 1.48704e-16 -0.244114 -3.71806e-19 1.27094e-18 -0.000290816 -3.69571e-14 -1.08116e-14 -5.62948e-28 0.001415 
5436 1 0.0238697 -0.0121851 0.0120123 0 0 0 -3.35829e-18 6.38125e-18 -0.244114 -5.04292e-19 9.58231e-19 -0.000290816 1.90574e-14 1.00294e-14 2.44816e-28 0.001415 
2098 1 -0.0163785 -0.0113032 0.0114104 0 0 0 -6.58908e-17 -1.19552e-17 -0.244114 -1.74471e-18 -3.16559e-19 -0.000290816 5.17831e-16 -2.85402e-15 -2.24635e-28 0.001415 
4519 1 0.0050482 -0.00799743 0.0124909 0 0 0 -6.0224e-16 7.18953e-16 -0.244114 -2.73654e-18 3.26688e-18 -0.000290816 3.97726e-15 3.3316e-15 1.55615e-27 0.001415 
3527 1 0.053278 -0.000195356 0.0110506 0 0 0 2.70012e-17 1.22802e-17 -0.244114 1.5833e-19 7.20085e-20 -0.000290816 -1.96124e-15 4.31232e-15 -2.58179e-29 0.001415 
4852 1 -0.0576017 0.00160357 0.0118116 0 0 0 4.54428e-17 7.45621e-17 -0.244114 4.52345e-19 7.42203e-19 -0.000290816 -1.48917e-14 9.07593e-15 8.06856e-28 0.001415 
9744 1 -0.0476714 0.00124731 0.0127322 0 0 0 2.81332e-17 3.2046e-17 -0.244114 2.97008e-19 3.38317e-19 -0.000290816 -1.48141e-14 1.30053e-14 7.89764e-28 0.001415 
2456 1 0.0231999 0.00341526 0.0119792 0 0 0 -3.65888e-16 2.30097e-16 -0.244114 -1.4723e-18 9.25892e-19 -0.000290816 5.44256e-15 8.65447e-15 -3.12569e-28 0.001415 
1469 1 -0.0554428 0.00427207 0.0126111 0 0 0 7.70029e-16 7.42041e-16 -0.244114 3.16328e-18 3.0483e-18 -0.000290816 1.86262e-14 -1.93287e-14 -6.89745e-30 0.001415 
6444 1 -0.0485008 0.00805 0.0123015 0 0 0 -7.14513e-17 8.70445e-17 -0.244114 -7.42419e-19 9.04441e-19 -0.000290816 -2.05347e-14 -1.68561e-14 -1.59932e-27 0.001415 
5546 1 -0.0286421 0.00814112 0.0127585 0 0 0 -1.38529e-15 -7.57356e-16 -0.244114 -6.47225e-18 -3.53847e-18 -0.000290816 -3.2419e-14 5.92979e-14 -4.11315e-27 0.001415 
7897 1 0.0202104 0.0106666 0.0121543 0 0 0 2.29765e-17 1.0952e-16 -0.244114 2.18214e-19 1.04014e-18 -0.000290816 -3.50445e-14 7.35209e-15 4.26845e-29 0.001415 
4430 1 -0.0607358 0.0123237 0.0124392 0 0 0 -8.75914e-16 1.87115e-16 -0.244114 -3.51043e-18 7.49907e-19 -0.000290816 1.8209e-15 8.5239e-15 -1.03325e-28 0.001415 
5821 1 0.071151 0.0126674 0.0121415 0 0 0 -1.81242e-17 1.74204e-17 -0.244114 -3.49212e-19 3.35651e-19 -0.000290816 -1.82487e-15 -1.8986e-15 -7.5721e-29 0.001415 
1279 1 -0.00741294 0.0227247 0.0117529 0 0 0 -9.70861e-17 -3.59636e-17 -0.244114 -1.05516e-18 -3.90861e-19 -0.000290816 8.79495e-17 -2.37426e-16 -1.71958e-28 0.001415 
4218 1 0.00694369 0.0277865 0.0126922 0 0 0 1.65015e-16 -1.21957e-15 -0.244114 4.14402e-19 -3.0627e-18 -0.000290816 -4.5922e-14 -6.21353e-15 2.78369e-28 0.001415 
9955 1 0.0480973 0.0295036 0.0112115 0 0 0 0 0 -0.244114 0 0 -0.000290816 0 0 0 0.001415 
6215 1 -0.0229502 0.0331509 0.0121565 0 0 0 -1.10842e-17 -5.15365e-17 -0.244114 -1.3077e-19 -6.08025e-19 -0.000290816 3.44948e-14 -7.41894e-15 -3.09142e-28 0.001415 
3967 1 -0.0257836 0.0351781 0.012368 0 0 0 -3.19512e-16 9.99583e-16 -0.244114 -1.39203e-18 4.35493e-18 -0.000290816 1.93938e-14 6.19913e-15 -1.10559e-27 0.001415 
4099 1 0.0465216 0.0422608 0.0117896 0 0 0 2.59263e-17 -8.8155e-18 -0.244114 6.09032e-19 -2.07084e-19 -0.000290816 -6.16953e-16 -1.81445e-15 -3.64676e-28 0.001415 
9746 1 -0.0326219 0.0429159 0.0114024 0 0 0 1.5341e-17 -9.88015e-17 -0.244114 1.5057e-19 -9.69723e-19 -0.000290816 2.65542e-14 4.12309e-15 -4.78107e-28 0.001415 
486 1 0.0131757 0.0431015 0.0113869 0 0 0 1.09751e-16 -9.30247e-17 -0.244114 9.94244e-19 -8.4272e-19 -0.000290816 2.33361e-14 2.75321e-14 -3.8549e-28 0.001415 
4638 1 0.00148191 0.0455993 0.0120229 0 0 0 1.91397e-17 -1.03059e-17 -0.244114 1.11703e-18 -6.01472e-19 -0.000290816 -5.91282e-15 -1.09811e-14 9.00462e-28 0.001415 
7348 1 0.0388741 0.0496065 0.012255 0 0 0 -3.88061e-17 -6.56246e-16 -0.244114 -1.65176e-19 -2.79328e-18 -0.000290816 3.48722e-15 -2.06211e-16 3.1977e-29 0.001415 
8316 1 0.0241447 0.055508 0.0119545 0 0 0 0 0 -0.244114 0 0 -0.000290816 0 0 0 0.001415 
4831 1 0.0293284 0.0560787 0.0124238 0 0 0 1.0151e-15 -5.64288e-16 -0.244114 4.73771e-18 -2.63365e-18 -0.000290816 -2.3635e-14 -4.25172e-14 -1.75708e-28 0.001415 
6909 1 0.00964204 0.0590336 0.0124579 0 0 0 2.22074e-16 -1.33806e-16 -0.244114 1.72974e-18 -1.04221e-18 -0.000290816 3.84128e-14 6.37528e-14 -9.63126e-28 0.001415 
8757 1 0.00829498 0.0765507 0.0128128 0 0 0 0 0 -0.244114 0 0 -0.000290816 0 0 0 0.001415 
3317 1 0.00879117 -0.0741345 0.0133698 0 0 0 1.2815e-15 -4.10099e-16 -0.244114 2.16886e-18 -6.94065e-19 -0.000290816 -2.3533e-14 -7.35374e-14 -1.89016e-27 0.001415 
4537 1 0.0348065 -0.0668743 0.0133478 0 0 0 4.5666e-16 -8.89315e-16 -0.244114 -4.36082e-22 8.4924e-22 -0.000290816 9.44175e-15 4.8483e-15 -4.63242e-29 0.001415 
5120 1 -0.00732864 -0.0640527 0.0131039 0 0 0 -5.22911e-16 -1.84063e-16 -0.244114 8.39995e-19 2.95676e-19 -0.000290816 2.31793e-15 -6.58508e-15 4.58042e-28 0.001415 
8902 1 0.00739974 -0.0547957 0.0139344 0 0 0 -1.69718e-16 1.43283e-15 -0.244114 1.0402e-19 -8.78185e-19 -0.000290816 1.27079e-14 1.50524e-15 1.55392e-28 0.001415 
4749 1 -0.0443437 -0.0522762 0.0139025 0 0 0 -1.09739e-15 1.60451e-16 -0.244114 8.63371e-19 -1.26235e-19 -0.000290816 2.53419e-15 1.73324e-14 -1.71556e-29 0.001415 
6408 1 -0.0176936 -0.0536375 0.013191 0 0 0 2.8687e-15 -8.36338e-16 -0.244114 2.22989e-17 -6.501e-18 -0.000290816 -3.2375e-14 -1.11049e-13 -3.78164e-27 0.001415 
5039 1 0.0393096 -0.0515993 0.0130085 0 0 0 1.77576e-15 4.87589e-16 -0.244114 1.01615e-17 2.79015e-18 -0.000290816 1.6905e-14 -6.15666e-14 2.78162e-27 0.001415 
8420 1 -0.0130316 -0.0490822 0.0138791 0 0 0 4.67369e-16 -1.24797e-15 -0.244114 -2.0355e-19 5.43519e-19 -0.000290816 -1.0878e-14 -4.07384e-15 1.068e-27 0.001415 
8293 1 0.0410995 -0.0444363 0.0129481 0 0 0 6.97332e-16 -1.65281e-15 -0.244114 2.74494e-18 -6.50603e-18 -0.000290816 -1.05842e-13 -4.46554e-14 -3.7528e-28 0.001415 
8782 1 0.00995582 -0.0396456 0.0128864 0 0 0 1.05781e-15 4.82567e-16 -0.244114 -6.74546e-19 -3.07724e-19 -0.000290816 1.18255e-14 -2.5922e-14 -1.01714e-27 0.001415 
1765 1 -0.00582286 -0.0341936 0.0136412 0 0 0 1.2723e-15 -3.98152e-16 -0.244114 -1.21497e-21 3.80211e-22 -0.000290816 -1.59985e-14 -5.11234e-14 4.64331e-28 0.001415 
7142 1 -0.0430179 -0.0310366 0.0143584 0 0 0 -9.67333e-16 9.60173e-16 -0.244114 9.23743e-22 -9.16906e-22 -0.000290816 2.6094e-14 2.62886e-14 -1.61898e-28 0.001415 
6549 1 -0.00774795 -0.0294214 0.0143265 0 0 0 6.51123e-16 -1.05532e-16 -0.244114 -3.89652e-19 6.31534e-20 -0.000290816 8.50584e-16 5.24804e-15 6.85804e-29 0.001415 
2898 1 -0.0015393 -0.0260351 0.0139134 0 0 0 8.47845e-16 -1.67373e-16 -0.244114 -8.09639e-22 1.5983e-22 -0.000290816 -5.0318e-16 -2.54891e-15 -8.95319e-29 0.001415 
2604 1 -0.0264828 -0.0239558 0.013638 0 0 0 1.93664e-15 -8.43203e-17 -0.244114 1.24024e-17 -5.39992e-19 -0.000290816 -3.96726e-15 -9.11186e-14 -1.54824e-28 0.001415 
7959 1 -0.0480224 -0.0227988 0.01432 0 0 0 -1.34106e-15 8.36454e-16 -0.244114 1.28063e-21 -7.98762e-22 -0.000290816 2.4652e-14 3.95238e-14 2.38021e-27 0.001415 
8818 1 0.00968245 -0.0211851 0.0138626 0 0 0 4.34973e-17 1.33784e-15 -0.244114 -3.86534e-20 -1.18886e-18 -0.000290816 6.8246e-15 -2.21889e-16 -1.44065e-28 0.001415 
9789 1 -0.0179785 -0.0208985 0.0139786 0 0 0 -9.79686e-16 -1.21821e-15 -0.244114 7.43274e-19 9.24237e-19 -0.000290816 -2.09221e-14 1.68256e-14 3.33337e-28 0.001415 
4471 1 -0.0206599 -0.0174716 0.014235 0 0 0 -3.23951e-16 1.10736e-15 -0.244114 3.72157e-19 -1.27214e-18 -0.000290816 -2.12198e-15 -6.20773e-16 -2.55494e-28 0.001415 
1404 1 0.0175339 -0.0189217 0.0141149 0 0 0 -1.15506e-15 -3.37914e-16 -0.244114 1.25635e-18 3.67547e-19 -0.000290816 -7.41681e-16 2.53521e-15 4.6897e-28 0.001415 
8586 1 -0.0404855 -0.0156313 0.0147248 0 0 0 -6.36284e-17 8.40299e-16 -0.244114 -3.5767e-19 4.72352e-18 -0.000290816 -4.47823e-14 -3.39097e-15 -2.04838e-28 0.001415 
4388 1 -0.00265555 -0.0161876 0.0133513 0 0 0 5.49168e-16 -2.67713e-16 -0.244114 -5.00522e-19 2.43999e-19 -0.000290816 2.02217e-15 4.14815e-15 -5.39006e-30 0.001415 
2097 1 -0.0180782 -0.0116116 0.013652 0 0 0 1.47475e-15 2.67578e-16 -0.244114 -1.4083e-21 -2.5552e-22 -0.000290816 8.10379e-15 -4.4664e-14 -1.64088e-27 0.001415 
5435 1 0.0233242 -0.0111485 0.0145885 0 0 0 5.28576e-16 -1.00437e-15 -0.244114 -4.87149e-19 9.25656e-19 -0.000290816 -2.01757e-15 -1.06179e-15 -3.44254e-28 0.001415 
9887 1 -0.0551901 -0.00373509 0.012948 0 0 0 3.76583e-16 -4.70346e-16 -0.244114 -6.21955e-19 7.76811e-19 -0.000290816 6.27418e-15 5.02342e-15 -5.5747e-29 0.001415 
4853 1 -0.0586257 -7.65915e-05 0.0138456 0 0 0 7.42751e-16 1.2187e-15 -0.244114 -4.53098e-19 -7.43438e-19 -0.000290816 8.27465e-15 -5.04309e-15 -1.27076e-27 0.001415 
9743 1 -0.0492029 -0.00049722 0.0143508 0 0 0 6.50275e-16 7.40717e-16 -0.244114 -2.97656e-19 -3.39055e-19 -0.000290816 2.05033e-14 -1.79999e-14 1.79561e-27 0.001415 
3403 1 0.0399954 0.00144601 0.0128671 0 0 0 -1.56537e-15 7.40766e-17 -0.244114 -8.89221e-18 4.20799e-19 -0.000290816 2.89714e-15 6.12216e-14 -4.8193e-28 0.001415 
3526 1 0.0549212 0.000551996 0.0132301 0 0 0 -1.47332e-15 -6.70066e-16 -0.244114 1.40693e-21 6.39872e-22 -0.000290816 -2.19832e-14 4.83359e-14 -1.36598e-27 0.001415 
3843 1 -0.0432547 0.00201405 0.0134526 0 0 0 1.21463e-15 8.27603e-16 -0.244114 -1.1599e-21 -7.90309e-22 -0.000290816 1.69872e-14 -2.49312e-14 2.01319e-27 0.001415 
2455 1 0.0236249 0.00314802 0.0147643 0 0 0 2.18411e-16 -1.37353e-16 -0.244114 1.47244e-18 -9.25981e-19 -0.000290816 6.08619e-15 9.67792e-15 -2.67357e-28 0.001415 
6238 1 0.0476834 0.00358837 0.0129881 0 0 0 1.99006e-15 -1.28044e-15 -0.244114 1.00911e-17 -6.49281e-18 -0.000290816 -5.23818e-14 -8.1412e-14 8.45266e-28 0.001415 
7479 1 0.00708078 0.00479504 0.0128949 0 0 0 -7.31304e-16 7.41588e-16 -0.244114 4.11449e-19 -4.17235e-19 -0.000290816 3.027e-15 2.98503e-15 4.31466e-28 0.001415 
6443 1 -0.0474965 0.00682656 0.0146475 0 0 0 -8.21593e-16 1.00089e-15 -0.244114 8.26516e-19 -1.00689e-18 -0.000290816 1.34736e-14 1.10599e-14 -2.85331e-28 0.001415 
7898 1 0.0197791 0.00861083 0.0140509 0 0 0 2.81941e-16 1.3439e-15 -0.244114 -2.18506e-19 -1.04153e-18 -0.000290816 1.81982e-14 -3.81786e-15 -4.19176e-28 0.001415 
4366 1 0.0434972 0.010956 0.013066 0 0 0 -8.05593e-16 7.26703e-16 -0.244114 6.66171e-19 -6.00934e-19 -0.000290816 3.50857e-15 3.88945e-15 -4.18177e-28 0.001415 
1176 1 0.023371 0.01534 0.0140523 0 0 0 1.7991e-17 1.52445e-15 -0.244114 -1.71802e-23 -1.45576e-21 -0.000290816 2.40539e-14 -2.83874e-16 -5.20579e-30 0.001415 
4344 1 0.0486622 0.0138541 0.0133589 0 0 0 -1.29676e-15 -4.55785e-16 -0.244114 7.0075e-19 2.463e-19 -0.000290816 -3.85223e-15 1.096e-14 8.8158e-28 0.001415 
5822 1 0.0700663 0.01371 0.0145385 0 0 0 1.10307e-15 -1.06024e-15 -0.244114 -1.05337e-21 1.01246e-21 -0.000290816 -2.64092e-14 -2.74762e-14 9.19616e-28 0.001415 
9808 1 -0.0411335 0.0170646 0.0145837 0 0 0 1.07638e-15 -8.87742e-16 -0.244114 -1.02788e-21 8.47738e-22 -0.000290816 -3.42601e-14 -4.15402e-14 2.99048e-27 0.001415 
5629 1 -0.00809486 0.0186934 0.0132323 0 0 0 1.80244e-15 3.15312e-17 -0.244114 1.10954e-17 1.94098e-19 -0.000290816 1.69273e-15 -9.67628e-14 4.14668e-28 0.001415 
9993 1 -0.0262716 0.020692 0.0133276 0 0 0 -8.01202e-16 -7.65386e-16 -0.244114 9.12949e-19 8.72138e-19 -0.000290816 -1.02993e-14 1.07812e-14 4.30709e-28 0.001415 
1278 1 -0.00656497 0.0230388 0.0144346 0 0 0 -8.29989e-16 -3.07452e-16 -0.244114 1.05604e-18 3.91189e-19 -0.000290816 5.76732e-15 -1.55693e-14 3.33415e-29 0.001415 
3553 1 0.038325 0.0241144 0.0133298 0 0 0 -1.94026e-16 1.13507e-15 -0.244114 1.34038e-19 -7.84136e-19 -0.000290816 1.44921e-14 2.47724e-15 6.35594e-28 0.001415 
2811 1 0.0616855 0.0236687 0.012949 0 0 0 2.42793e-16 1.23191e-15 -0.244114 -2.15662e-19 -1.09425e-18 -0.000290816 6.31375e-16 -1.24435e-16 -2.43206e-28 0.001415 
9956 1 0.047731 0.0274693 0.0131444 0 0 0 3.55811e-16 1.9761e-15 -0.244114 2.18428e-18 1.2131e-17 -0.000290816 5.35278e-14 -9.63807e-15 2.50722e-28 0.001415 
6007 1 0.0347873 0.0296881 0.0129143 0 0 0 3.83127e-16 4.29285e-16 -0.244114 -3.65863e-22 -4.0994e-22 -0.000290816 -2.63593e-15 2.35251e-15 1.33565e-29 0.001415 
8774 1 0.0137081 0.0323084 0.013588 0 0 0 -2.39462e-16 4.03006e-16 -0.244114 2.04785e-19 -3.44645e-19 -0.000290816 -5.09622e-15 -3.02812e-15 -6.56287e-29 0.001415 
6214 1 -0.0224995 0.0352466 0.0140042 0 0 0 -2.8085e-16 -1.30583e-15 -0.244114 1.59905e-19 7.43487e-19 -0.000290816 -2.33655e-14 5.02532e-15 1.07402e-27 0.001415 
7873 1 -0.0162209 0.0354611 0.0132377 0 0 0 5.26769e-16 6.23086e-16 -0.244114 -4.28889e-19 -5.07308e-19 -0.000290816 -6.69605e-15 5.66097e-15 5.48486e-28 0.001415 
6847 1 -0.0500743 0.0395872 0.0133943 0 0 0 -1.89039e-15 8.15367e-16 -0.244114 -1.15618e-17 4.98686e-18 -0.000290816 4.87319e-14 1.12983e-13 -3.69942e-27 0.001415 