ITEM: TIMESTEP
85000
ITEM: NUMBER OF ATOMS
10248
ITEM: BOX BOUNDS ff ff ff
-0.2 0.2
-0.2 0.2
-0.01 0.5
ITEM: ATOMS id type x y z ix iy iz vx vy vz fx fy fz omegax omegay omegaz radius 
5124 1 -0.00943529 -0.0647942 0.00265153 0 0 0 -1.04561e-17 -3.68053e-18 -0.216666 9.42985e-24 3.31928e-24 -0.000290854 2.41022e-16 -6.84727e-16 1.3382e-32 0.001415 
168 1 0.0236553 -0.0380352 0.00158703 0 0 0 8.12619e-18 1.08465e-16 -0.216666 2.51351e-19 3.35492e-18 -0.000290854 7.71265e-16 -5.77833e-17 -6.31584e-31 0.001415 
9891 1 -0.0536741 -0.00562861 0.002536 0 0 0 6.91712e-18 -8.63938e-18 -0.216666 -6.23819e-24 7.7914e-24 -0.000290854 6.56014e-16 5.25238e-16 -2.86256e-31 0.001415 
8778 1 0.0127785 0.033873 0.00306031 0 0 0 -4.16811e-18 7.01478e-18 -0.216666 3.759e-24 -6.32626e-24 -0.000290854 -4.39569e-16 -2.61188e-16 3.60359e-31 0.001415 
167 1 0.0236183 -0.0385289 0.00437338 0 0 0 -7.27047e-18 -9.70429e-17 -0.216666 -2.33501e-19 -3.11666e-18 -0.000290854 7.70114e-16 -5.7697e-17 3.7941e-30 0.001415 
5439 1 0.0255064 -0.015295 0.00492888 0 0 0 6.69759e-19 -1.27264e-18 -0.216666 -6.0402e-25 1.14773e-24 -0.000290854 -5.23924e-18 -2.75728e-18 2.22105e-33 0.001415 
4096 1 0.0493328 0.0413049 0.00448089 0 0 0 7.88756e-18 -2.68194e-18 -0.216666 1.31878e-19 -4.48416e-20 -0.000290854 -1.51384e-16 -4.45217e-16 6.71428e-31 0.001415 
5123 1 -0.00890863 -0.0646088 0.0054259 0 0 0 9.51975e-18 3.35092e-18 -0.216666 -8.58537e-24 -3.02202e-24 -0.000290854 2.39572e-16 -6.80609e-16 1.61864e-32 0.001415 
8779 1 0.0136066 -0.0379801 0.00604967 0 0 0 1.14883e-19 5.24089e-20 -0.216666 -1.03607e-25 -4.72648e-26 -0.000290854 -4.07829e-19 8.93981e-19 -5.00778e-34 0.001415 
6552 1 -0.00600865 -0.0297033 0.00666643 0 0 0 7.94169e-19 -1.28716e-19 -0.216666 -7.16219e-25 1.16082e-25 -0.000290854 -4.68492e-19 -2.89056e-18 -2.04102e-34 0.001415 
9890 1 -0.0540531 -0.00515523 0.00530026 0 0 0 -6.00509e-18 7.50026e-18 -0.216666 5.41568e-24 -6.76409e-24 -0.000290854 6.50007e-16 5.20429e-16 -2.86576e-31 0.001415 
4516 1 0.00201022 -0.00437069 0.00608635 0 0 0 -1.07232e-18 1.28014e-18 -0.216666 9.67073e-25 -1.15449e-24 -0.000290854 4.69468e-18 3.93256e-18 -1.24819e-32 0.001415 
5818 1 0.0744051 0.00953964 0.0055958 0 0 0 2.36866e-19 -2.27668e-19 -0.216666 -2.13617e-25 2.05322e-25 -0.000290854 -2.53192e-19 -2.63421e-19 -1.71789e-34 0.001415 
6447 1 -0.0515136 0.0117203 0.00590874 0 0 0 -1.10176e-18 1.3422e-18 -0.216666 9.93621e-25 -1.21046e-24 -0.000290854 4.42255e-18 3.63029e-18 -1.38196e-32 0.001415 
4347 1 0.0446345 0.0124385 0.00666551 0 0 0 -7.28295e-19 -2.55981e-19 -0.216666 6.56811e-25 2.30856e-25 -0.000290854 -2.68512e-19 7.63947e-19 -3.25097e-35 0.001415 
9996 1 -0.0293411 0.0177597 0.00662017 0 0 0 -1.7526e-18 -1.67425e-18 -0.216666 1.58057e-24 1.50992e-24 -0.000290854 -7.58345e-18 7.93832e-18 1.07769e-32 0.001415 
4221 1 0.00751144 0.0235905 0.0059786 0 0 0 3.08443e-20 -2.27959e-19 -0.216666 -2.78168e-26 2.05584e-25 -0.000290854 4.14645e-19 5.6104e-20 1.08553e-34 0.001415 
3550 1 0.0375782 0.0284832 0.00673366 0 0 0 -1.07715e-18 6.3014e-18 -0.216666 9.71421e-25 -5.6829e-24 -0.000290854 3.71276e-17 6.3465e-18 -1.16603e-32 0.001415 
2814 1 0.0624335 0.0274639 0.00603652 0 0 0 1.42418e-19 7.22615e-19 -0.216666 -1.28439e-25 -6.51689e-25 -0.000290854 1.17363e-18 -2.31306e-19 1.95775e-33 0.001415 
8777 1 0.0130109 0.0334818 0.0058535 0 0 0 3.96833e-18 -6.67855e-18 -0.216666 -3.57883e-24 6.02303e-24 -0.000290854 -4.38796e-16 -2.60728e-16 3.60238e-31 0.001415 
4641 1 -0.00200478 0.0474767 0.00515808 0 0 0 -2.10646e-18 1.13424e-18 -0.216666 1.8997e-24 -1.02291e-24 -0.000290854 5.34879e-18 9.93356e-18 -2.46542e-33 0.001415 
5122 1 -0.00838197 -0.0644234 0.00820028 0 0 0 5.90402e-19 2.0782e-19 -0.216666 -8.07023e-21 -2.8407e-21 -0.000290854 5.90163e-17 -1.67661e-16 -1.19752e-30 0.001415 
8780 1 0.0123897 -0.0385353 0.00854361 0 0 0 1.72785e-17 7.88235e-18 -0.216666 2.93905e-19 1.34078e-19 -0.000290854 -1.43792e-15 3.15198e-15 2.27529e-30 0.001415 
166 1 0.0235813 -0.0390227 0.00715973 0 0 0 -7.99505e-19 -1.06714e-17 -0.216666 -1.78508e-20 -2.38264e-19 -0.000290854 1.1259e-19 -8.43527e-21 4.42559e-30 0.001415 
1407 1 0.0135434 -0.0200891 0.00735776 0 0 0 -6.80107e-19 -1.98966e-19 -0.216666 6.13353e-25 1.79437e-25 -0.000290854 -4.80074e-19 1.64099e-18 -6.54889e-34 0.001415 
8589 1 -0.0402517 -0.0187189 0.00746473 0 0 0 5.78199e-20 -7.6359e-19 -0.216666 -5.21447e-26 6.88641e-25 -0.000290854 3.63285e-18 2.75084e-19 -1.53633e-32 0.001415 
5438 1 0.0249608 -0.0142584 0.00750505 0 0 0 5.50478e-18 -1.04599e-17 -0.216666 2.2976e-19 -4.36579e-19 -0.000290854 -1.03452e-15 -5.44444e-16 3.86167e-31 0.001415 
2100 1 -0.012979 -0.0106864 0.00757237 0 0 0 8.68112e-18 1.5751e-18 -0.216666 1.96212e-19 3.56006e-20 -0.000290854 1.47753e-17 -8.14338e-17 1.65578e-31 0.001415 
9889 1 -0.0544321 -0.00468185 0.00806453 0 0 0 -9.12033e-19 1.13911e-18 -0.216666 8.22514e-25 -1.02731e-24 -0.000290854 -6.00733e-18 -4.80978e-18 -3.20211e-34 0.001415 
4517 1 0.00302288 -0.0055796 0.00843624 0 0 0 1.07232e-18 -1.28014e-18 -0.216666 -9.67073e-25 1.15449e-24 -0.000290854 4.69468e-18 3.93256e-18 -1.24819e-32 0.001415 
7477 1 0.00556963 0.00632744 0.00830514 0 0 0 0 0 -0.216666 0 0 -0.000290854 0 0 0 0.001415 
6446 1 -0.0505093 0.0104969 0.00825469 0 0 0 -1.34516e-18 1.63872e-18 -0.216666 -4.20373e-20 5.12113e-20 -0.000290854 1.44097e-17 1.18283e-17 3.28281e-31 0.001415 
5819 1 0.0733204 0.0105822 0.00799274 0 0 0 -2.36866e-19 2.27668e-19 -0.216666 2.13617e-25 -2.05322e-25 -0.000290854 -2.53192e-19 -2.63421e-19 -1.71789e-34 0.001415 
4368 1 0.0417993 0.0124877 0.00853355 0 0 0 0 0 -0.216666 0 0 -0.000290854 0 0 0 0.001415 
1281 1 -0.00910888 0.0220965 0.00703475 0 0 0 -7.20052e-19 -2.66729e-19 -0.216666 6.49377e-25 2.40549e-25 -0.000290854 -8.98012e-19 2.42424e-18 -9.3915e-34 0.001415 
4220 1 0.00732219 0.0249892 0.00843151 0 0 0 9.58328e-19 -7.08266e-18 -0.216666 1.73543e-20 -1.28259e-19 -0.000290854 -6.8594e-17 -9.28119e-18 3.03948e-31 0.001415 
2813 1 0.0621842 0.0261988 0.00855571 0 0 0 8.05284e-19 4.08594e-18 -0.216666 1.69451e-20 8.59782e-20 -0.000290854 -8.58575e-17 1.69213e-17 -6.39514e-32 0.001415 
8776 1 0.0132433 0.0330907 0.00864668 0 0 0 -3.75906e-19 6.32635e-19 -0.216666 -1.03167e-20 1.73627e-20 -0.000290854 -2.35327e-17 -1.39829e-17 2.40275e-31 0.001415 
3969 1 -0.0266131 0.0377733 0.00805199 0 0 0 -9.76532e-18 3.05505e-17 -0.216666 -1.63486e-19 5.11462e-19 -0.000290854 -2.74509e-15 -8.77455e-16 2.47117e-30 0.001415 
7875 1 -0.0151895 0.0366812 0.00845292 0 0 0 2.61081e-18 3.08818e-18 -0.216666 4.37732e-20 5.17768e-20 -0.000290854 1.98866e-16 -1.68125e-16 -2.00395e-31 0.001415 
484 1 0.0153265 0.0412785 0.00712417 0 0 0 2.85384e-18 -2.41891e-18 -0.216666 -2.57373e-24 2.18149e-24 -0.000290854 -1.26416e-17 -1.49146e-17 1.11465e-32 0.001415 
4097 1 0.0483957 0.0416236 0.00713217 0 0 0 -6.42799e-18 2.18566e-18 -0.216666 -1.3188e-19 4.4842e-20 -0.000290854 -1.52904e-16 -4.4969e-16 6.69966e-31 0.001415 
4640 1 -0.000842548 0.0468509 0.00766137 0 0 0 -2.22811e-17 1.19974e-17 -0.216666 -1.53112e-18 8.24439e-19 -0.000290854 9.01742e-17 1.67468e-16 2.02876e-33 0.001415 
7350 1 0.0388042 0.0484249 0.00736524 0 0 0 -4.44037e-21 -7.50907e-20 -0.216666 4.00454e-27 6.77204e-26 -0.000290854 2.59562e-19 -1.53488e-20 3.67268e-36 0.001415 
6406 1 -0.013834 -0.0547628 0.00985201 0 0 0 9.77218e-18 -2.84897e-18 -0.216666 1.64075e-19 -4.78342e-20 -0.000290854 -1.34574e-16 -4.61599e-16 -8.62933e-31 0.001415 
4747 1 -0.048396 -0.0516837 0.0106408 0 0 0 -2.9075e-17 4.2511e-18 -0.216666 -4.90879e-19 7.17721e-20 -0.000290854 -1.75098e-16 -1.19757e-15 -4.30151e-31 0.001415 
8904 1 0.00698378 -0.051284 0.0101602 0 0 0 0 0 -0.216666 0 0 -0.000290854 0 0 0 0.001415 
9219 1 -0.0350531 -0.0474779 0.0089239 0 0 0 0 0 -0.216666 0 0 -0.000290854 0 0 0 0.001415 
8295 1 0.0424827 -0.0477148 0.00919161 0 0 0 0 0 -0.216666 0 0 -0.000290854 0 0 0 0.001415 
165 1 0.0235443 -0.0395164 0.00994608 0 0 0 1.58976e-19 2.12194e-18 -0.216666 7.68417e-21 1.02565e-19 -0.000290854 9.45677e-17 -7.08502e-18 1.02225e-29 0.001415 
6551 1 -0.00658842 -0.0296093 0.00943481 0 0 0 2.16895e-18 -3.51536e-19 -0.216666 4.97421e-20 -8.06203e-21 -0.000290854 -2.3768e-17 -1.46647e-16 2.57304e-34 0.001415 
9787 1 -0.0202299 -0.023698 0.01025 0 0 0 -4.12639e-18 -5.13104e-18 -0.216666 -7.0725e-20 -8.79443e-20 -0.000290854 -2.12508e-16 1.70899e-16 -1.44528e-30 0.001415 
1406 1 0.0148736 -0.0197 0.00982518 0 0 0 6.80107e-19 1.98966e-19 -0.216666 -6.13353e-25 -1.79437e-25 -0.000290854 -4.80074e-19 1.64099e-18 -6.54889e-34 0.001415 
8588 1 -0.0403296 -0.0176897 0.0100998 0 0 0 2.94117e-18 -3.88421e-17 -0.216666 6.59401e-20 -8.70828e-19 -0.000290854 3.66008e-15 2.77145e-16 2.45427e-29 0.001415 
8820 1 0.00980992 -0.0172644 0.0104276 0 0 0 0 0 -0.216666 0 0 -0.000290854 0 0 0 0.001415 
3529 1 0.0670132 -0.0166749 0.0107276 0 0 0 0 0 -0.216666 0 0 -0.000290854 0 0 0 0.001415 
4473 1 -0.0215554 -0.0144106 0.0102043 0 0 0 0 0 -0.216666 0 0 -0.000290854 0 0 0 0.001415 
5437 1 0.0244153 -0.0132218 0.0100812 0 0 0 1.8021e-18 -3.42426e-18 -0.216666 -8.90068e-20 1.69126e-19 -0.000290854 4.47408e-16 2.3546e-16 2.22836e-30 0.001415 
2099 1 -0.0146787 -0.0109948 0.00981395 0 0 0 -4.59624e-18 -8.33937e-19 -0.216666 -1.23586e-19 -2.24233e-20 -0.000290854 3.15251e-17 -1.7375e-16 5.94729e-32 0.001415 
3528 1 0.0516347 -0.000942708 0.00951622 0 0 0 -1.09182e-17 -4.96559e-18 -0.216666 -1.82898e-19 -8.31819e-20 -0.000290854 -2.69599e-16 5.92787e-16 -3.93138e-31 0.001415 
2457 1 0.0227749 0.00368251 0.0098392 0 0 0 0 0 -0.216666 0 0 -0.000290854 0 0 0 0.001415 
6445 1 -0.0495051 0.00927345 0.0106007 0 0 0 -8.09424e-20 9.86069e-20 -0.216666 -4.37584e-21 5.3308e-21 -0.000290854 -1.0377e-16 -8.51809e-17 1.89956e-30 0.001415 
4431 1 -0.0620527 0.012605 0.0105952 0 0 0 -2.27929e-17 4.86907e-18 -0.216666 -5.57675e-19 1.19132e-19 -0.000290854 -6.9956e-16 -3.27475e-15 -3.12561e-29 0.001415 
4346 1 0.0459771 0.0129104 0.00911168 0 0 0 -6.09439e-18 -2.14206e-18 -0.216666 -1.14512e-19 -4.02489e-20 -0.000290854 -1.2506e-16 3.55809e-16 -6.35216e-31 0.001415 
5820 1 0.0722357 0.0116248 0.0103897 0 0 0 5.49189e-18 -5.27862e-18 -0.216666 9.21404e-20 -8.85623e-20 -0.000290854 -3.00067e-16 -3.1219e-16 -2.63928e-30 0.001415 
9995 1 -0.0283179 0.0187371 0.00907102 0 0 0 1.7526e-18 1.67425e-18 -0.216666 -1.58057e-24 -1.50992e-24 -0.000290854 -7.58345e-18 7.93832e-18 1.07769e-32 0.001415 
1280 1 -0.00826091 0.0224106 0.00971639 0 0 0 7.20052e-19 2.66729e-19 -0.216666 -6.49377e-25 -2.40549e-25 -0.000290854 -8.98012e-19 2.42424e-18 -9.3915e-34 0.001415 
3551 1 0.0378271 0.027027 0.00914742 0 0 0 1.07715e-18 -6.3014e-18 -0.216666 -9.71421e-25 5.6829e-24 -0.000290854 3.71276e-17 6.3465e-18 -1.16603e-32 0.001415 
3968 1 -0.0261983 0.0364757 0.0105325 0 0 0 9.76532e-18 -3.05505e-17 -0.216666 1.63486e-19 -5.11462e-19 -0.000290854 -2.74509e-15 -8.77455e-16 2.47117e-30 0.001415 
9745 1 -0.0323504 0.0411674 0.00983883 0 0 0 0 0 -0.216666 0 0 -0.000290854 0 0 0 0.001415 
485 1 0.0142511 0.04219 0.00957806 0 0 0 -2.85384e-18 2.41891e-18 -0.216666 2.57373e-24 -2.18149e-24 -0.000290854 -1.26416e-17 -1.49146e-17 1.11465e-32 0.001415 
4098 1 0.0474587 0.0419422 0.00978345 0 0 0 8.00807e-19 -2.72292e-19 -0.216666 3.82009e-20 -1.29892e-20 -0.000290854 -1.71531e-17 -5.04471e-17 -1.49343e-31 0.001415 
4639 1 0.000319678 0.0462251 0.0101647 0 0 0 1.45066e-17 -7.81116e-18 -0.216666 1.34915e-18 -7.2646e-19 -0.000290854 2.88381e-16 5.35569e-16 -1.18565e-30 0.001415 
7349 1 0.0388392 0.0490157 0.0101327 0 0 0 -5.33714e-19 -9.02559e-18 -0.216666 -1.49525e-20 -2.5286e-19 -0.000290854 -4.23263e-16 2.5029e-17 -1.63099e-30 0.001415 
3318 1 0.0108764 -0.0748018 0.0122218 0 0 0 0 0 -0.216666 0 0 -0.000290854 0 0 0 0.001415 
5121 1 -0.0078553 -0.064238 0.0109747 0 0 0 -6.64206e-18 -2.33798e-18 -0.216666 -1.92349e-19 -6.77062e-20 -0.000290854 -2.86114e-16 8.12831e-16 3.7184e-29 0.001415 
6407 1 -0.0157638 -0.0542001 0.0118441 0 0 0 -9.77218e-18 2.84897e-18 -0.216666 -1.64075e-19 4.78342e-20 -0.000290854 -1.34574e-16 -4.61599e-16 -8.62933e-31 0.001415 
4748 1 -0.0463698 -0.05198 0.0125942 0 0 0 1.32832e-17 -1.94215e-18 -0.216666 5.33498e-20 -7.80036e-21 -0.000290854 -9.41543e-16 -6.4396e-15 1.94822e-29 0.001415 
8903 1 0.00719176 -0.0530399 0.0123698 0 0 0 -1.64824e-18 1.39152e-17 -0.216666 -5.10389e-20 4.30894e-19 -0.000290854 -3.11229e-15 -3.68648e-16 3.0256e-29 0.001415 
8421 1 -0.0125515 -0.050364 0.0120473 0 0 0 0 0 -0.216666 0 0 -0.000290854 0 0 0 0.001415 
5040 1 0.0412118 -0.051077 0.0116244 0 0 0 0 0 -0.216666 0 0 -0.000290854 0 0 0 0.001415 
9218 1 -0.0344149 -0.0491301 0.0111311 0 0 0 -4.77229e-18 1.23529e-17 -0.216666 -1.35302e-19 3.50224e-19 -0.000290854 -1.86483e-15 -7.20437e-16 -2.10124e-29 0.001415 
8294 1 0.0417911 -0.0460756 0.0113924 0 0 0 0 0 -0.216666 0 0 -0.000290854 0 0 0 0.001415 
8781 1 0.0111727 -0.0390904 0.0110376 0 0 0 -1.73934e-17 -7.93476e-18 -0.216666 -2.93905e-19 -1.34078e-19 -0.000290854 -1.43751e-15 3.15109e-15 2.27579e-30 0.001415 
7141 1 -0.0440609 -0.0300013 0.0125849 0 0 0 0 0 -0.216666 0 0 -0.000290854 0 0 0 0.001415 
6550 1 -0.00716818 -0.0295154 0.0122032 0 0 0 -2.96312e-18 4.80252e-19 -0.216666 -4.97414e-20 8.06191e-21 -0.000290854 -2.32995e-17 -1.43756e-16 4.61405e-34 0.001415 
9788 1 -0.0191042 -0.0222982 0.0124368 0 0 0 -1.7475e-18 -2.17296e-18 -0.216666 -1.37005e-19 -1.70361e-19 -0.000290854 2.71218e-15 -2.18114e-15 3.95424e-29 0.001415 
1405 1 0.0162037 -0.0193109 0.0122926 0 0 0 -2.13434e-17 -6.24406e-18 -0.216666 -5.63768e-19 -1.64931e-19 -0.000290854 8.26561e-16 -2.82535e-15 -9.09244e-30 0.001415 
8819 1 0.00974619 -0.0192248 0.0124677 0 0 0 9.05656e-19 2.78551e-17 -0.216666 2.26939e-20 6.97992e-19 -0.000290854 -2.82919e-15 9.19858e-17 -2.56931e-29 0.001415 
4472 1 -0.0211077 -0.0159411 0.0125422 0 0 0 -1.05338e-17 3.60074e-17 -0.216666 -2.4047e-19 8.21995e-19 -0.000290854 -5.71042e-15 -1.67055e-15 -5.04956e-29 0.001415 
4389 1 -0.00210167 -0.0164576 0.0112343 0 0 0 3.21161e-18 -1.56562e-18 -0.216666 1.11358e-19 -5.42858e-20 -0.000290854 -2.0148e-16 -4.13302e-16 9.5509e-31 0.001415 
2098 1 -0.0163785 -0.0113032 0.0120555 0 0 0 -4.08488e-18 -7.41158e-19 -0.216666 -7.26268e-20 -1.31774e-20 -0.000290854 1.67499e-17 -9.23166e-17 -1.06106e-31 0.001415 
4518 1 0.00403554 -0.00678852 0.0107861 0 0 0 -1.41527e-17 1.68955e-17 -0.216666 -3.41422e-19 4.07589e-19 -0.000290854 -3.16281e-15 -2.64937e-15 -6.42503e-29 0.001415 
9888 1 -0.0548111 -0.00420847 0.0108288 0 0 0 3.62351e-18 -4.52571e-18 -0.216666 1.13806e-19 -1.42141e-19 -0.000290854 -3.74739e-16 -3.00035e-16 -1.04459e-29 0.001415 
3527 1 0.053278 -0.000195356 0.0116957 0 0 0 1.09182e-17 4.96559e-18 -0.216666 1.82898e-19 8.31819e-20 -0.000290854 -2.69599e-16 5.92787e-16 -3.93138e-31 0.001415 
4852 1 -0.0576017 0.00160357 0.0124567 0 0 0 7.44289e-18 1.22122e-17 -0.216666 2.25931e-19 3.70705e-19 -0.000290854 -1.55367e-15 9.46905e-16 4.58547e-29 0.001415 
2456 1 0.0231999 0.00341526 0.0126243 0 0 0 -1.88854e-16 1.18765e-16 -0.216666 -2.26701e-18 1.42566e-18 -0.000290854 3.92896e-16 6.24761e-16 -1.36507e-29 0.001415 
1470 1 -0.0541433 0.00552442 0.0110763 0 0 0 1.66901e-17 1.60835e-17 -0.216666 4.10433e-19 3.95516e-19 -0.000290854 -3.01355e-15 3.12722e-15 7.67291e-29 0.001415 
7478 1 0.0063252 0.00556124 0.0109226 0 0 0 0 0 -0.216666 0 0 -0.000290854 0 0 0 0.001415 
5545 1 -0.0302182 0.00727945 0.0112167 0 0 0 0 0 -0.216666 0 0 -0.000290854 0 0 0 0.001415 
4367 1 0.0426483 0.0117219 0.0111223 0 0 0 -7.891e-18 7.11825e-18 -0.216666 -2.48432e-19 2.24103e-19 -0.000290854 -3.43156e-16 -3.80408e-16 5.76718e-30 0.001415 
4345 1 0.0473197 0.0133822 0.0115579 0 0 0 6.82269e-18 2.39804e-18 -0.216666 1.14512e-19 4.02486e-20 -0.000290854 -1.24791e-16 3.55045e-16 -6.35184e-31 0.001415 
9994 1 -0.0272948 0.0197145 0.0115219 0 0 0 -1.56339e-17 -1.4935e-17 -0.216666 -4.0517e-19 -3.87058e-19 -0.000290854 1.99204e-15 -2.08526e-15 3.39614e-29 0.001415 
1279 1 -0.00741294 0.0227247 0.012398 0 0 0 -1.84064e-17 -6.81829e-18 -0.216666 -4.64964e-19 -1.72237e-19 -0.000290854 4.61566e-17 -1.24603e-16 -1.59496e-29 0.001415 
2812 1 0.0619348 0.0249338 0.0110749 0 0 0 1.7879e-18 9.07163e-18 -0.216666 6.54845e-20 3.32263e-19 -0.000290854 -2.08441e-16 4.10808e-17 -2.86139e-29 0.001415 
4219 1 0.00713294 0.0263879 0.0108844 0 0 0 1.26327e-18 -9.33636e-18 -0.216666 4.65876e-20 -3.44313e-19 -0.000290854 1.63488e-15 2.2121e-16 -7.06919e-30 0.001415 
3552 1 0.038076 0.0255707 0.0115612 0 0 0 -1.11013e-18 6.49439e-18 -0.216666 -3.87883e-20 2.26915e-19 -0.000290854 -1.54366e-15 -2.63869e-16 2.46082e-29 0.001415 
9955 1 0.0480973 0.0295036 0.0118566 0 0 0 0 0 -0.216666 0 0 -0.000290854 0 0 0 0.001415 
6216 1 -0.023401 0.0310553 0.0109539 0 0 0 -1.65932e-18 -7.71511e-18 -0.216666 -2.85099e-20 -1.32559e-19 -0.000290854 -2.353e-16 5.0607e-17 -2.03653e-31 0.001415 
8775 1 0.0134757 0.0326995 0.0114399 0 0 0 -8.27246e-19 1.39222e-18 -0.216666 -3.83515e-20 6.45442e-20 -0.000290854 2.9673e-16 1.76314e-16 -4.63183e-30 0.001415 
7874 1 -0.0157052 0.0360712 0.0111678 0 0 0 -2.61081e-18 -3.08818e-18 -0.216666 -4.37732e-20 -5.17768e-20 -0.000290854 1.98866e-16 -1.68125e-16 -2.00395e-31 0.001415 
4099 1 0.0465216 0.0422608 0.0124347 0 0 0 -2.26038e-18 7.68577e-19 -0.216666 -3.81996e-20 1.29887e-20 -0.000290854 -1.56324e-17 -4.59747e-17 -1.47881e-31 0.001415 
9746 1 -0.0326219 0.0429159 0.0120475 0 0 0 2.6288e-18 -1.69304e-17 -0.216666 7.72884e-20 -4.97765e-19 -0.000290854 3.42991e-15 5.32565e-16 -2.2815e-29 0.001415 
486 1 0.0131757 0.0431015 0.012032 0 0 0 2.34334e-17 -1.98621e-17 -0.216666 5.57037e-19 -4.72144e-19 -0.000290854 3.84082e-15 4.53141e-15 -1.58195e-29 0.001415 
8316 1 0.0241447 0.055508 0.0125996 0 0 0 0 0 -0.216666 0 0 -0.000290854 0 0 0 0.001415 
6048 1 -0.0014895 0.0671831 0.0114471 0 0 0 -1.56481e-17 -9.40329e-19 -0.216666 -4.69726e-19 -2.82269e-20 -0.000290854 1.01111e-16 -1.6826e-15 1.17932e-30 0.001415 
3317 1 0.00879117 -0.0741345 0.0140149 0 0 0 6.44218e-16 -2.06159e-16 -0.216666 1.31282e-17 -4.2012e-18 -0.000290854 -1.99744e-15 -6.24173e-15 -1.57808e-28 0.001415 
4537 1 0.0348065 -0.0668743 0.0139928 0 0 0 2.08576e-16 -4.06187e-16 -0.216666 3.92962e-18 -7.65267e-18 -0.000290854 5.67786e-15 2.91556e-15 -3.39534e-29 0.001415 
5120 1 -0.00732864 -0.0640527 0.013749 0 0 0 -2.53515e-16 -8.92366e-17 -0.216666 -4.69509e-18 -1.65266e-18 -0.000290854 1.29865e-15 -3.68939e-15 4.26694e-29 0.001415 
4749 1 -0.0443437 -0.0522762 0.0145476 0 0 0 -4.72438e-16 6.90758e-17 -0.216666 -9.96977e-18 1.4577e-18 -0.000290854 1.2949e-15 8.85633e-15 1.17726e-29 0.001415 
6408 1 -0.0176936 -0.0536375 0.0138361 0 0 0 6.91049e-16 -2.01468e-16 -0.216666 1.41834e-17 -4.13501e-18 -0.000290854 -6.86723e-16 -2.35551e-15 1.44029e-28 0.001415 
9217 1 -0.0337766 -0.0507822 0.0133384 0 0 0 -1.94827e-16 5.04303e-16 -0.216666 -2.15408e-18 5.57577e-18 -0.000290854 -8.41956e-16 -3.25272e-16 3.80088e-28 0.001415 
5039 1 0.0393096 -0.0515993 0.0136536 0 0 0 6.32097e-16 1.73561e-16 -0.216666 1.30393e-17 3.58032e-18 -0.000290854 8.08108e-16 -2.94307e-15 8.56691e-29 0.001415 
8420 1 -0.0130316 -0.0490822 0.0145242 0 0 0 2.09248e-16 -5.58734e-16 -0.216666 4.33192e-18 -1.15671e-17 -0.000290854 1.24957e-15 4.67967e-16 1.52988e-28 0.001415 
8293 1 0.0410995 -0.0444363 0.0135932 0 0 0 2.74818e-16 -6.5137e-16 -0.216666 5.60823e-18 -1.32926e-17 -0.000290854 -1.1038e-14 -4.657e-15 1.61871e-28 0.001415 
8782 1 0.00995582 -0.0396456 0.0135315 0 0 0 4.71074e-16 2.14901e-16 -0.216666 9.89363e-18 4.51342e-18 -0.000290854 3.27044e-15 -7.16896e-15 -1.43382e-28 0.001415 
164 1 0.0235073 -0.0400101 0.0127324 0 0 0 1.78435e-17 2.38167e-16 -0.216666 3.36756e-19 4.49487e-18 -0.000290854 -3.52184e-15 2.63857e-16 1.3473e-29 0.001415 
1765 1 -0.00582286 -0.0341936 0.0142863 0 0 0 5.39213e-16 -1.6874e-16 -0.216666 1.13144e-17 -3.5407e-18 -0.000290854 -3.58073e-15 -1.14423e-14 -7.5656e-30 0.001415 
2898 1 -0.0015393 -0.0260351 0.0145585 0 0 0 3.88094e-16 -7.66135e-17 -0.216666 7.27682e-18 -1.43651e-18 -0.000290854 5.03735e-16 2.55173e-15 -3.74874e-29 0.001415 
1113 1 0.057839 -0.0250229 0.0134151 0 0 0 5.88055e-16 3.01699e-16 -0.216666 1.19841e-17 6.14838e-18 -0.000290854 2.38416e-15 -4.64707e-15 -2.27374e-28 0.001415 
2604 1 -0.0264828 -0.0239558 0.0142831 0 0 0 5.53937e-16 -2.41181e-17 -0.216666 1.14341e-17 -4.97835e-19 -0.000290854 -5.97074e-16 -1.37134e-14 3.40188e-29 0.001415 
8818 1 0.00968245 -0.0211851 0.0145077 0 0 0 1.93719e-17 5.95818e-16 -0.216666 4.01726e-19 1.23558e-17 -0.000290854 9.44815e-16 -3.07188e-17 -1.77788e-29 0.001415 
3530 1 0.0663652 -0.0174708 0.0133649 0 0 0 3.683e-16 4.52345e-16 -0.216666 6.81615e-18 8.37159e-18 -0.000290854 -2.05924e-15 1.67664e-15 -2.8472e-28 0.001415 
8587 1 -0.0404076 -0.0166605 0.0127349 0 0 0 3.15469e-17 -4.1662e-16 -0.216666 5.13962e-19 -6.78755e-18 -0.000290854 2.4079e-15 1.82329e-16 -9.18305e-30 0.001415 
4388 1 -0.00265555 -0.0161876 0.0139964 0 0 0 2.59613e-16 -1.26558e-16 -0.216666 4.85733e-18 -2.36789e-18 -0.000290854 1.7139e-15 3.51578e-15 -2.50554e-30 0.001415 
2097 1 -0.0180782 -0.0116116 0.0142971 0 0 0 6.40681e-16 1.16245e-16 -0.216666 1.322e-17 2.39862e-18 -0.000290854 1.77298e-15 -9.77176e-15 -1.4986e-28 0.001415 
5436 1 0.0238697 -0.0121851 0.0126574 0 0 0 -9.07101e-19 1.72363e-18 -0.216666 6.36326e-20 -1.20912e-19 -0.000290854 1.99991e-15 1.0525e-15 -1.85856e-29 0.001415 
4519 1 0.0050482 -0.00799743 0.013136 0 0 0 -2.76525e-16 3.30115e-16 -0.216666 -4.25869e-18 5.08402e-18 -0.000290854 3.91497e-16 3.27942e-16 1.12886e-28 0.001415 
9887 1 -0.0551901 -0.00373509 0.0135931 0 0 0 1.81873e-16 -2.27156e-16 -0.216666 3.36082e-18 -4.19762e-18 -0.000290854 3.12932e-15 2.50549e-15 -1.4157e-29 0.001415 
4853 1 -0.0586257 -7.65915e-05 0.0144907 0 0 0 3.30459e-16 5.42214e-16 -0.216666 6.65491e-18 1.09193e-17 -0.000290854 -1.49026e-15 9.08261e-16 3.92529e-29 0.001415 
9744 1 -0.0476714 0.00124731 0.0133773 0 0 0 3.89288e-18 4.43432e-18 -0.216666 1.30416e-19 1.48554e-19 -0.000290854 -7.28396e-16 6.39458e-16 1.05564e-29 0.001415 
3403 1 0.0399954 0.00144601 0.0135122 0 0 0 -5.49562e-16 2.60064e-17 -0.216666 -1.27477e-17 6.03248e-19 -0.000290854 1.87365e-16 3.95934e-15 -1.80025e-29 0.001415 
3526 1 0.0549212 0.000551996 0.0138752 0 0 0 -6.46779e-16 -2.94155e-16 -0.216666 -1.33167e-17 -6.05643e-18 -0.000290854 -4.81975e-15 1.05975e-14 -5.90615e-28 0.001415 
3843 1 -0.0432547 0.00201405 0.0140977 0 0 0 5.17788e-16 3.52802e-16 -0.216666 1.05648e-17 7.19847e-18 -0.000290854 2.11065e-15 -3.09768e-15 5.11203e-28 0.001415 
6238 1 0.0476834 0.00358837 0.0136332 0 0 0 6.5909e-16 -4.24069e-16 -0.216666 1.32169e-17 -8.50397e-18 -0.000290854 -1.81856e-15 -2.82641e-15 -1.37684e-28 0.001415 
1469 1 -0.0554428 0.00427207 0.0132562 0 0 0 3.83948e-16 3.69993e-16 -0.216666 5.01282e-18 4.83062e-18 -0.000290854 3.38686e-15 -3.5146e-15 -2.12604e-28 0.001415 
7479 1 0.00708078 0.00479504 0.01354 0 0 0 -3.43083e-16 3.47907e-16 -0.216666 -6.39411e-18 6.48402e-18 -0.000290854 -2.37669e-15 -2.34373e-15 -5.75971e-29 0.001415 
6444 1 -0.0485008 0.00805 0.0129466 0 0 0 -8.98285e-18 1.09432e-17 -0.216666 -2.87932e-19 3.50769e-19 -0.000290854 -2.80452e-15 -2.30212e-15 -7.29859e-29 0.001415 
5546 1 -0.0286421 0.00814112 0.0134035 0 0 0 -6.3515e-16 -3.47246e-16 -0.216666 -9.35583e-18 -5.11497e-18 -0.000290854 -5.44786e-15 9.96473e-15 -1.16055e-28 0.001415 
7897 1 0.0202104 0.0106666 0.0127994 0 0 0 4.40106e-18 2.09781e-17 -0.216666 1.18785e-19 5.66203e-19 -0.000290854 -2.35608e-15 4.94289e-16 5.72249e-30 0.001415 
4366 1 0.0434972 0.010956 0.0137111 0 0 0 -3.85858e-16 3.48072e-16 -0.216666 -7.13805e-18 6.43904e-18 -0.000290854 -1.37687e-15 -1.52634e-15 6.19353e-29 0.001415 
4430 1 -0.0607358 0.0123237 0.0130843 0 0 0 -4.46749e-16 9.54356e-17 -0.216666 -5.60218e-18 1.19675e-18 -0.000290854 3.14976e-16 1.47445e-15 2.64492e-29 0.001415 
5821 1 0.071151 0.0126674 0.0127866 0 0 0 -5.49189e-18 5.27862e-18 -0.216666 -9.21404e-20 8.85623e-20 -0.000290854 -3.00067e-16 -3.1219e-16 -2.63928e-30 0.001415 
4344 1 0.0486622 0.0138541 0.014004 0 0 0 -5.85404e-16 -2.05758e-16 -0.216666 -1.21092e-17 -4.25615e-18 -0.000290854 -2.24541e-16 6.38844e-16 1.85098e-28 0.001415 
5629 1 -0.00809486 0.0186934 0.0138774 0 0 0 5.7339e-16 1.00307e-17 -0.216666 1.20283e-17 2.10418e-19 -0.000290854 2.7945e-16 -1.59744e-14 2.56002e-29 0.001415 
9993 1 -0.0262716 0.020692 0.0139727 0 0 0 -3.64084e-16 -3.47808e-16 -0.216666 -7.59122e-18 -7.25186e-18 -0.000290854 -3.98409e-15 4.17053e-15 1.58579e-28 0.001415 
3553 1 0.038325 0.0241144 0.0139749 0 0 0 -8.5758e-17 5.01693e-16 -0.216666 -1.79828e-18 1.05201e-17 -0.000290854 3.77979e-15 6.46107e-16 4.95197e-29 0.001415 
2811 1 0.0616855 0.0236687 0.0135941 0 0 0 1.12031e-16 5.68437e-16 -0.216666 2.28561e-18 1.1597e-17 -0.000290854 -3.68018e-15 7.25313e-16 -5.57102e-29 0.001415 
4218 1 0.00694369 0.0277865 0.0133373 0 0 0 7.26354e-17 -5.36823e-16 -0.216666 1.50218e-18 -1.11021e-17 -0.000290854 -4.54149e-15 -6.14492e-16 5.01116e-29 0.001415 
9956 1 0.047731 0.0274693 0.0137895 0 0 0 1.13527e-16 6.30507e-16 -0.216666 2.35038e-18 1.30535e-17 -0.000290854 3.40042e-15 -6.1227e-16 -1.9884e-30 0.001415 
6007 1 0.0347873 0.0296881 0.0135594 0 0 0 1.71304e-16 1.91941e-16 -0.216666 3.25214e-18 3.64394e-18 -0.000290854 -2.72788e-15 2.43457e-15 2.66135e-29 0.001415 
8774 1 0.0137081 0.0323084 0.0142331 0 0 0 -1.1351e-16 1.91032e-16 -0.216666 -2.11131e-18 3.55325e-18 -0.000290854 -2.92603e-15 -1.73862e-15 1.74613e-29 0.001415 
6215 1 -0.0229502 0.0331509 0.0128016 0 0 0 -6.6459e-19 -3.09005e-18 -0.216666 -4.59935e-20 -2.13849e-19 -0.000290854 3.33939e-15 -7.18215e-16 -8.47042e-30 0.001415 
3967 1 -0.0257836 0.0351781 0.0130131 0 0 0 -1.60839e-16 5.03181e-16 -0.216666 -1.95614e-18 6.11971e-18 -0.000290854 4.53551e-16 1.44975e-16 -9.61762e-30 0.001415 
7873 1 -0.0162209 0.0354611 0.0138828 0 0 0 2.49496e-16 2.95114e-16 -0.216666 4.67699e-18 5.53214e-18 -0.000290854 -5.60466e-15 4.7383e-15 -3.73808e-30 0.001415 
6847 1 -0.0500743 0.0395872 0.0140394 0 0 0 -6.24574e-16 2.69393e-16 -0.216666 -1.24932e-17 5.38861e-18 -0.000290854 5.97266e-15 1.38473e-14 -4.60203e-28 0.001415 
487 1 0.0121003 0.044013 0.0144859 0 0 0 3.74175e-16 -3.1715e-16 -0.216666 7.73058e-18 -6.55244e-18 -0.000290854 -1.2747e-15 -1.50389e-15 -2.77389e-29 0.001415 
9747 1 -0.0328934 0.0446643 0.0142561 0 0 0 9.88783e-17 -6.36812e-16 -0.216666 2.00658e-18 -1.29231e-17 -0.000290854 -4.43695e-15 -6.88929e-16 -6.15637e-29 0.001415 
4638 1 0.00148191 0.0455993 0.012668 0 0 0 4.14085e-18 -2.22967e-18 -0.216666 -1.99842e-20 1.07606e-20 -0.000290854 -4.13327e-16 -7.67615e-16 -2.07332e-30 0.001415 
7348 1 0.0388741 0.0496065 0.0129001 0 0 0 -1.70344e-17 -2.88067e-16 -0.216666 -3.13475e-19 -5.30115e-18 -0.000290854 4.27965e-15 -2.5307e-16 -6.10117e-30 0.001415 
8315 1 0.0261215 0.0546907 0.0144524 0 0 0 -6.26298e-16 2.58929e-16 -0.216666 -1.26392e-17 5.22541e-18 -0.000290854 1.06099e-15 2.56633e-15 5.75083e-28 0.001415 
4831 1 0.0293284 0.0560787 0.0130689 0 0 0 4.74653e-16 -2.63856e-16 -0.216666 6.74803e-18 -3.75118e-18 -0.000290854 -4.19868e-15 -7.55306e-15 -2.88267e-28 0.001415 
6909 1 0.00964204 0.0590336 0.013103 0 0 0 6.3369e-17 -3.81815e-17 -0.216666 1.30567e-18 -7.86702e-19 -0.000290854 5.09854e-15 8.46192e-15 -2.01725e-28 0.001415 
6047 1 -2.16486e-05 0.0672713 0.0138651 0 0 0 -6.28207e-16 -3.77503e-17 -0.216666 -1.27749e-17 -7.67671e-19 -0.000290854 1.85866e-18 -3.09301e-17 -6.51676e-30 0.001415 
7455 1 0.00864732 0.0657086 0.0140114 0 0 0 -2.63727e-17 6.25401e-16 -0.216666 -5.51084e-19 1.30684e-17 -0.000290854 3.58565e-16 1.51204e-17 -1.09177e-29 0.001415 
8757 1 0.00829498 0.0765507 0.0134579 0 0 0 0 0 -0.216666 0 0 -0.000290854 0 0 0 0.001415 
3316 1 0.00670592 -0.0734672 0.015808 0 0 0 -6.44218e-16 2.06159e-16 -0.216666 -1.31282e-17 4.2012e-18 -0.000290854 -1.99744e-15 -6.24173e-15 -1.57808e-28 0.001415 
2499 1 0.0564696 -0.0568217 0.015955 0 0 0 5.3673e-18 -1.228e-17 -0.216666 9.18535e-20 -2.10154e-19 -0.000290854 -2.97923e-16 -1.30216e-16 -1.0166e-30 0.001415 
8902 1 0.00739974 -0.0547957 0.0145795 0 0 0 -7.53313e-17 6.35981e-16 -0.216666 -1.52839e-18 1.29033e-17 -0.000290854 2.70339e-15 3.20214e-16 1.01085e-29 0.001415 
4054 1 -0.0359786 -0.0521436 0.0162415 0 0 0 0 0 -0.216666 0 0 -0.000290854 0 0 0 0.001415 
9216 1 -0.0331383 -0.0524344 0.0155456 0 0 0 1.77815e-16 -4.6027e-16 -0.216666 7.40341e-19 -1.91635e-18 -0.000290854 3.29924e-15 1.27459e-15 2.11683e-28 0.001415 
6409 1 -0.0196234 -0.0530749 0.0158282 0 0 0 -6.91049e-16 2.01468e-16 -0.216666 -1.41834e-17 4.13501e-18 -0.000290854 -6.86723e-16 -2.35551e-15 1.44029e-28 0.001415 
5038 1 0.0374074 -0.0521216 0.0156828 0 0 0 -5.83372e-16 -1.60182e-16 -0.216666 -1.19625e-17 -3.28467e-18 -0.000290854 9.74065e-16 -3.54747e-15 1.48881e-28 0.001415 
8292 1 0.0404079 -0.0427971 0.015794 0 0 0 -2.66544e-16 6.3176e-16 -0.216666 -5.37365e-18 1.27365e-17 -0.000290854 -1.06932e-14 -4.51156e-15 2.15348e-28 0.001415 
163 1 0.0234703 -0.0405039 0.0155188 0 0 0 -1.76733e-17 -2.35896e-16 -0.216666 -3.30282e-19 -4.40845e-18 -0.000290854 -2.5082e-15 1.87915e-16 1.55761e-29 0.001415 
8783 1 0.00873888 -0.0402008 0.0160255 0 0 0 -4.61043e-16 -2.10325e-16 -0.216666 -9.58003e-18 -4.37035e-18 -0.000290854 2.67342e-15 -5.86028e-15 -9.95078e-29 0.001415 
1766 1 -0.00794199 -0.0335305 0.0160409 0 0 0 -4.98153e-16 1.55891e-16 -0.216666 -1.04065e-17 3.25659e-18 -0.000290854 -3.10801e-15 -9.93172e-15 2.65064e-29 0.001415 
7142 1 -0.0430179 -0.0310366 0.0150035 0 0 0 -4.17522e-16 4.14431e-16 -0.216666 -8.71166e-18 8.64719e-18 -0.000290854 4.76479e-15 4.80032e-15 -1.98312e-28 0.001415 
6549 1 -0.00774795 -0.0294214 0.0149716 0 0 0 2.99135e-16 -4.84828e-17 -0.216666 5.57852e-18 -9.04146e-19 -0.000290854 5.76968e-16 3.55985e-15 3.2971e-30 0.001415 
1112 1 0.0563793 -0.0257718 0.0157211 0 0 0 -5.88055e-16 -3.01699e-16 -0.216666 -1.19841e-17 -6.14838e-18 -0.000290854 2.38416e-15 -4.64707e-15 -2.27374e-28 0.001415 